
***************************************************************
*                 Welcome to use GPUMD                        *
*    (Graphics Processing Units Molecular Dynamics)           *
*                    Version 3.9.4                            *
*              This is the nep executable                     *
***************************************************************


---------------------------------------------------------------
GPU information:
---------------------------------------------------------------

number of GPUs = 1
Device id:                   0
    Device name:             NVIDIA GeForce RTX 4090
    Compute capability:      8.9
    Amount of global memory: 23.9878 GB
    Number of SMs:           128

---------------------------------------------------------------
Started running nep.
---------------------------------------------------------------


---------------------------------------------------------------
Started reading nep.in.
---------------------------------------------------------------

Input or default parameters:
    (default) model_type = potential.
    (default) calculation mode = train.
    (default) use NEP version 4.
    (input)   number of atom types = 3.
        (default) type 0 (Mo with Z = 42) has force weight of 1.
        (default) type 1 (W with Z = 74) has force weight of 1.
        (default) type 2 (Se with Z = 34) has force weight of 1.
    (default) will not add the ZBL potential.
    (default) radial cutoff = 8 A.
    (default) angular cutoff = 4 A.
    (default) n_max_radial = 4.
    (default) n_max_angular = 4.
    (default) basis_size_radial = 8.
    (default) basis_size_angular = 8.
    (default) l_max_3body = 4.
    (default) l_max_4body = 2.
    (default) l_max_5body = 0.
    (default) number of neurons = 30.
    (default) lambda_1 = 0.011092.
    (default) lambda_2 = 0.011092.
    (default) lambda_e = 1.
    (default) lambda_f = 1.
    (default) lambda_v = 0.1.
    (default) lambda_shear = 1.
    (default) force_delta = 0.
    (default) batch size = 1000.
    (default) population size = 50.
    (default) maximum number of generations = 100000.
Some calculated parameters:
    number of radial descriptor components = 5.
    number of angular descriptor components = 25.
    total number of descriptor components = 30.
    NN architecture = 30-30-1.
    number of NN parameters to be optimized = 2881.
    number of descriptor parameters to be optimized = 810.
    total number of parameters to be optimized = 3691.

---------------------------------------------------------------
Finished reading nep.in.
---------------------------------------------------------------


---------------------------------------------------------------
Started reading train.xyz.
---------------------------------------------------------------

Number of configurations = 150.
Number of devices = 1
Number of batches = 1
Hello, I changed the batch_size from 1000 to 150.

Batch 0:
Number of configurations = 150.

---------------------------------------------------------------
Constructing train_set in device  0.
Total number of atoms = 16200.
Number of atoms in the largest configuration = 108.
Number of configurations having virial = 150.
Radial descriptor with a cutoff of 8 A:
    Minimum number of neighbors for one atom = 55.
    Maximum number of neighbors for one atom = 60.
Angular descriptor with a cutoff of 4 A:
    Minimum number of neighbors for one atom = 10.
    Maximum number of neighbors for one atom = 15.
---------------------------------------------------------------


---------------------------------------------------------------
Started reading test.xyz.
---------------------------------------------------------------

Number of configurations = 30.

---------------------------------------------------------------
Constructing test_set in device  0.
Total number of atoms = 3240.
Number of atoms in the largest configuration = 108.
Number of configurations having virial = 30.
Radial descriptor with a cutoff of 8 A:
    Minimum number of neighbors for one atom = 56.
    Maximum number of neighbors for one atom = 60.
Angular descriptor with a cutoff of 4 A:
    Minimum number of neighbors for one atom = 10.
    Maximum number of neighbors for one atom = 15.
---------------------------------------------------------------


---------------------------------------------------------------
Time used for initialization = 0.061379 s.
---------------------------------------------------------------


---------------------------------------------------------------
Started training.
---------------------------------------------------------------

Step    Total-Loss L1Reg-Loss L2Reg-Loss RMSE-E-Train RMSE-F-Train RMSE-V-Train RMSE-E-Test  RMSE-F-Test  RMSE-V-Test  
100     0.30903    0.00579    0.00671    0.00641      0.26883      0.21275      0.00413      0.25702      0.19047      
200     0.23362    0.00586    0.00685    0.00767      0.18514      0.28111      0.00629      0.18298      0.26578      
300     0.19883    0.00595    0.00701    0.01269      0.15659      0.16597      0.01054      0.15095      0.16170      
400     0.18103    0.00601    0.00712    0.01209      0.14330      0.12505      0.00970      0.13990      0.10804      
500     0.18560    0.00607    0.00724    0.01069      0.14957      0.12025      0.01247      0.14362      0.11794      
600     0.17738    0.00618    0.00739    0.00772      0.14481      0.11282      0.00455      0.14125      0.10423      
700     0.18682    0.00622    0.00747    0.02558      0.13892      0.08647      0.02267      0.13531      0.08068      
800     0.16677    0.00632    0.00763    0.00557      0.13875      0.08491      0.00398      0.13572      0.06909      
900     0.16644    0.00644    0.00778    0.00862      0.13591      0.07695      0.00712      0.14154      0.07487      
1000    0.16350    0.00653    0.00791    0.01271      0.12794      0.08411      0.00988      0.12128      0.08380      
1100    0.16422    0.00664    0.00806    0.02790      0.11580      0.05816      0.02389      0.10972      0.04230      
1200    0.14816    0.00669    0.00816    0.01227      0.11549      0.05557      0.01114      0.11171      0.04581      
1300    0.15232    0.00678    0.00829    0.00996      0.11865      0.08643      0.00865      0.11623      0.07405      
1400    0.15684    0.00685    0.00840    0.00568      0.12447      0.11442      0.00603      0.12465      0.11169      
1500    0.15529    0.00692    0.00852    0.00971      0.12327      0.06875      0.00775      0.11953      0.05779      
1600    0.14563    0.00701    0.00867    0.00842      0.11146      0.10066      0.00834      0.10846      0.10219      
1700    0.14233    0.00711    0.00881    0.00566      0.11611      0.04641      0.00586      0.11199      0.04151      
1800    0.13431    0.00722    0.00894    0.00604      0.10722      0.04893      0.00478      0.10443      0.03614      
1900    0.13179    0.00733    0.00908    0.00439      0.10502      0.05969      0.00412      0.10692      0.05710      
2000    0.13812    0.00745    0.00925    0.00404      0.09932      0.18080      0.00318      0.09658      0.18459      
2100    0.13100    0.00747    0.00932    0.01320      0.09640      0.04612      0.01096      0.09771      0.03878      
2200    0.14150    0.00757    0.00943    0.01336      0.10667      0.04461      0.01141      0.10431      0.03979      
2300    0.13241    0.00769    0.00964    0.01658      0.09310      0.05400      0.01448      0.09213      0.05154      
2400    0.13986    0.00777    0.00973    0.01070      0.10080      0.10855      0.00996      0.09716      0.10365      
2500    0.12990    0.00784    0.00988    0.01268      0.09282      0.06681      0.00961      0.08853      0.06218      
2600    0.12438    0.00789    0.00992    0.00625      0.09633      0.03996      0.00573      0.09557      0.03431      
2700    0.12460    0.00797    0.00998    0.00479      0.09588      0.05982      0.00447      0.09138      0.04670      
2800    0.12427    0.00806    0.01015    0.00705      0.08724      0.11757      0.00694      0.08556      0.11481      
2900    0.12726    0.00818    0.01031    0.00870      0.09215      0.07931      0.00670      0.09265      0.07551      
3000    0.12677    0.00822    0.01041    0.00998      0.09412      0.04033      0.00846      0.09331      0.03631      
3100    0.12342    0.00827    0.01047    0.00599      0.09292      0.05771      0.00438      0.08854      0.04286      
3200    0.12263    0.00838    0.01062    0.00552      0.09122      0.06903      0.00390      0.08844      0.05841      
3300    0.11838    0.00848    0.01075    0.00400      0.08927      0.05882      0.00406      0.08643      0.04559      
3400    0.11282    0.00857    0.01090    0.00343      0.08475      0.05165      0.00329      0.08077      0.03820      
3500    0.11934    0.00865    0.01096    0.00306      0.09130      0.05378      0.00297      0.09000      0.04758      
3600    0.11785    0.00877    0.01117    0.00547      0.08643      0.06006      0.00563      0.08461      0.05059      
3700    0.11744    0.00880    0.01121    0.00717      0.08497      0.05298      0.00692      0.08471      0.05173      
3800    0.11487    0.00891    0.01137    0.00704      0.08118      0.06367      0.00578      0.07947      0.05442      
3900    0.11743    0.00900    0.01149    0.00286      0.08981      0.04270      0.00246      0.08622      0.03253      
4000    0.11603    0.00908    0.01162    0.00264      0.08483      0.07854      0.00238      0.08399      0.07130      
4100    0.11445    0.00917    0.01173    0.00281      0.08440      0.06348      0.00187      0.08086      0.04922      
4200    0.11233    0.00928    0.01189    0.00775      0.07933      0.04074      0.00719      0.07521      0.02864      
4300    0.11937    0.00932    0.01194    0.00587      0.08804      0.04199      0.00556      0.08705      0.03149      
4400    0.10863    0.00939    0.01209    0.00547      0.07899      0.02694      0.00585      0.07725      0.02033      
4500    0.11724    0.00949    0.01222    0.00733      0.08281      0.05385      0.00651      0.07949      0.04627      
4600    0.11412    0.00963    0.01244    0.00550      0.08212      0.04437      0.00480      0.07916      0.03614      
4700    0.11226    0.00970    0.01257    0.00411      0.08090      0.04993      0.00346      0.07872      0.04140      
4800    0.10467    0.00977    0.01272    0.00248      0.07589      0.03804      0.00239      0.07528      0.03714      
4900    0.10757    0.00983    0.01276    0.00348      0.07832      0.03176      0.00291      0.07732      0.02445      
5000    0.10401    0.00987    0.01294    0.00151      0.07503      0.04668      0.00133      0.07296      0.03661      
5100    0.10793    0.00995    0.01305    0.00545      0.07465      0.04837      0.00408      0.07497      0.04796      
5200    0.10415    0.01000    0.01315    0.00155      0.07651      0.02947      0.00116      0.07637      0.02523      
5300    0.10648    0.01010    0.01331    0.00420      0.07573      0.03154      0.00345      0.07510      0.02138      
5400    0.10504    0.01022    0.01351    0.00281      0.07422      0.04285      0.00246      0.07309      0.03208      
5500    0.10717    0.01026    0.01356    0.00655      0.07420      0.02601      0.00630      0.07335      0.01972      
5600    0.10098    0.01035    0.01378    0.00340      0.06887      0.04576      0.00313      0.06810      0.04161      
5700    0.09956    0.01036    0.01378    0.00158      0.06974      0.04100      0.00099      0.06877      0.03819      
5800    0.10168    0.01045    0.01392    0.00423      0.06954      0.03535      0.00392      0.06833      0.02930      
5900    0.10288    0.01054    0.01410    0.00370      0.07166      0.02891      0.00378      0.07185      0.02234      
6000    0.10116    0.01068    0.01430    0.00232      0.06967      0.04189      0.00197      0.07052      0.04282      
6100    0.10036    0.01071    0.01428    0.00477      0.06618      0.04414      0.00414      0.06472      0.04260      
6200    0.09622    0.01080    0.01445    0.00329      0.06483      0.02847      0.00285      0.06251      0.02481      
6300    0.09772    0.01090    0.01469    0.00400      0.06629      0.01840      0.00362      0.06448      0.01171      
6400    0.09966    0.01091    0.01464    0.00198      0.06777      0.04355      0.00191      0.06729      0.04047      
6500    0.09545    0.01100    0.01466    0.00386      0.06249      0.03443      0.00331      0.06059      0.02416      
6600    0.09488    0.01105    0.01476    0.00152      0.06443      0.03127      0.00116      0.06297      0.02743      
6700    0.09552    0.01110    0.01486    0.00246      0.06313      0.03982      0.00245      0.06136      0.02794      
6800    0.09738    0.01120    0.01497    0.00516      0.06327      0.02784      0.00434      0.06163      0.01888      
6900    0.09801    0.01126    0.01512    0.00415      0.06316      0.04307      0.00334      0.06271      0.03661      
7000    0.09664    0.01134    0.01520    0.00256      0.06305      0.04477      0.00272      0.05967      0.04278      
7100    0.09171    0.01148    0.01536    0.00183      0.06110      0.01938      0.00194      0.05910      0.01307      
7200    0.09471    0.01154    0.01551    0.00216      0.06230      0.03183      0.00181      0.06158      0.02450      
7300    0.09260    0.01162    0.01557    0.00276      0.05956      0.03095      0.00261      0.05796      0.02086      
7400    0.09303    0.01163    0.01564    0.00112      0.06137      0.03275      0.00126      0.05915      0.03196      
7500    0.09102    0.01169    0.01562    0.00086      0.06105      0.01798      0.00085      0.06024      0.01410      
7600    0.09462    0.01177    0.01579    0.00138      0.06392      0.01769      0.00150      0.06115      0.01071      
7700    0.09010    0.01185    0.01592    0.00123      0.05817      0.02934      0.00105      0.05713      0.02376      
7800    0.08969    0.01190    0.01605    0.00185      0.05788      0.02018      0.00144      0.05741      0.01663      
7900    0.09264    0.01195    0.01615    0.00308      0.05864      0.02824      0.00240      0.06318      0.02634      
8000    0.09018    0.01202    0.01621    0.00166      0.05764      0.02652      0.00193      0.05689      0.01856      
8100    0.09023    0.01200    0.01624    0.00190      0.05585      0.04238      0.00151      0.05777      0.04042      
8200    0.08924    0.01203    0.01624    0.00149      0.05698      0.02504      0.00146      0.05525      0.01731      
8300    0.09074    0.01204    0.01621    0.00190      0.05904      0.01550      0.00171      0.05868      0.01302      
8400    0.09108    0.01203    0.01622    0.00313      0.05762      0.02074      0.00311      0.05621      0.01835      
8500    0.08984    0.01215    0.01639    0.00153      0.05672      0.03055      0.00153      0.05518      0.02722      
8600    0.09093    0.01225    0.01653    0.00476      0.05470      0.02680      0.00408      0.05277      0.02043      
8700    0.08913    0.01229    0.01667    0.00129      0.05644      0.02442      0.00119      0.05414      0.01955      
8800    0.08771    0.01232    0.01654    0.00266      0.05466      0.01522      0.00204      0.05266      0.01168      
8900    0.08742    0.01237    0.01658    0.00134      0.05530      0.01826      0.00125      0.05308      0.01052      
9000    0.08942    0.01242    0.01665    0.00148      0.05632      0.02548      0.00124      0.05559      0.02182      
9100    0.08852    0.01255    0.01690    0.00292      0.05256      0.03584      0.00263      0.05163      0.03574      
9200    0.08668    0.01254    0.01684    0.00203      0.05330      0.01972      0.00205      0.05171      0.01810      
9300    0.08722    0.01263    0.01699    0.00064      0.05448      0.02477      0.00062      0.05198      0.02184      
9400    0.08747    0.01257    0.01691    0.00116      0.05356      0.03260      0.00108      0.05184      0.03416      
9500    0.08708    0.01267    0.01708    0.00281      0.05297      0.01537      0.00260      0.05143      0.00940      
9600    0.08556    0.01275    0.01721    0.00176      0.05244      0.01395      0.00155      0.05117      0.01214      
9700    0.08647    0.01274    0.01718    0.00085      0.05326      0.02430      0.00077      0.05101      0.02006      
9800    0.08760    0.01282    0.01730    0.00183      0.05367      0.01978      0.00190      0.05210      0.01707      
9900    0.08695    0.01283    0.01737    0.00267      0.05248      0.01598      0.00269      0.05053      0.01182      
10000   0.08561    0.01275    0.01727    0.00085      0.05309      0.01660      0.00074      0.05140      0.01362      
10100   0.08764    0.01286    0.01740    0.00149      0.05466      0.01234      0.00150      0.05326      0.00817      
10200   0.08769    0.01282    0.01726    0.00071      0.05510      0.01802      0.00065      0.05345      0.01583      
10300   0.08455    0.01288    0.01738    0.00130      0.05143      0.01549      0.00119      0.05045      0.01124      
10400   0.08696    0.01294    0.01747    0.00299      0.05184      0.01719      0.00242      0.05108      0.01527      
10500   0.08685    0.01293    0.01751    0.00245      0.05237      0.01584      0.00200      0.05090      0.01313      
10600   0.08513    0.01300    0.01760    0.00136      0.05152      0.01640      0.00120      0.05059      0.01259      
10700   0.08694    0.01307    0.01768    0.00184      0.05177      0.02576      0.00171      0.05104      0.01946      
10800   0.08668    0.01306    0.01762    0.00311      0.05161      0.01281      0.00313      0.05203      0.01111      
10900   0.08353    0.01308    0.01772    0.00080      0.05047      0.01462      0.00083      0.04988      0.00903      
11000   0.08473    0.01305    0.01766    0.00063      0.05175      0.01639      0.00063      0.05089      0.01236      
11100   0.08544    0.01307    0.01770    0.00153      0.05074      0.02397      0.00142      0.04965      0.02001      
11200   0.08303    0.01294    0.01753    0.00106      0.05012      0.01375      0.00097      0.04942      0.01008      
11300   0.08257    0.01296    0.01755    0.00072      0.04980      0.01525      0.00065      0.04859      0.00989      
11400   0.08368    0.01304    0.01770    0.00137      0.04997      0.01599      0.00116      0.04909      0.01307      
11500   0.08298    0.01297    0.01761    0.00073      0.05040      0.01265      0.00055      0.04895      0.00625      
11600   0.08472    0.01305    0.01778    0.00087      0.05138      0.01637      0.00067      0.05059      0.01411      
11700   0.08400    0.01301    0.01771    0.00166      0.04962      0.01999      0.00169      0.04838      0.01885      
11800   0.08342    0.01304    0.01777    0.00053      0.05056      0.01529      0.00050      0.04933      0.01179      
11900   0.08295    0.01314    0.01786    0.00076      0.04907      0.02115      0.00070      0.04747      0.01908      
12000   0.08344    0.01318    0.01796    0.00136      0.04975      0.01195      0.00135      0.04861      0.00970      
12100   0.08321    0.01317    0.01795    0.00069      0.04932      0.02066      0.00062      0.04716      0.01310      
12200   0.08271    0.01312    0.01784    0.00085      0.04966      0.01244      0.00078      0.04824      0.00901      
12300   0.08292    0.01306    0.01774    0.00095      0.04940      0.01769      0.00085      0.04741      0.01327      
12400   0.08277    0.01309    0.01779    0.00118      0.04931      0.01401      0.00108      0.04630      0.01171      
12500   0.08107    0.01294    0.01758    0.00123      0.04741      0.01917      0.00125      0.04586      0.01551      
12600   0.08154    0.01295    0.01754    0.00104      0.04837      0.01635      0.00088      0.04703      0.01526      
12700   0.08084    0.01289    0.01747    0.00129      0.04762      0.01580      0.00112      0.04647      0.01391      
12800   0.07989    0.01288    0.01744    0.00068      0.04771      0.01179      0.00074      0.04588      0.00962      
12900   0.08008    0.01282    0.01736    0.00073      0.04758      0.01589      0.00060      0.04634      0.01409      
13000   0.07963    0.01283    0.01732    0.00049      0.04734      0.01650      0.00043      0.04543      0.01557      
13100   0.08015    0.01279    0.01730    0.00158      0.04710      0.01383      0.00132      0.04518      0.01201      
13200   0.07974    0.01278    0.01720    0.00145      0.04695      0.01356      0.00138      0.04522      0.00965      
13300   0.07923    0.01283    0.01731    0.00087      0.04628      0.01952      0.00069      0.04492      0.01229      
13400   0.08015    0.01281    0.01724    0.00138      0.04734      0.01383      0.00133      0.04605      0.01228      
13500   0.07922    0.01284    0.01737    0.00132      0.04627      0.01421      0.00139      0.04515      0.01294      
13600   0.07929    0.01282    0.01730    0.00111      0.04620      0.01857      0.00117      0.04523      0.01943      
13700   0.08020    0.01293    0.01741    0.00191      0.04623      0.01726      0.00163      0.04518      0.01633      
13800   0.07882    0.01292    0.01735    0.00089      0.04529      0.02366      0.00083      0.04496      0.02374      
13900   0.07845    0.01282    0.01723    0.00209      0.04515      0.01163      0.00210      0.04425      0.00640      
14000   0.07781    0.01282    0.01718    0.00085      0.04533      0.01631      0.00068      0.04461      0.01150      
14100   0.07780    0.01281    0.01720    0.00093      0.04551      0.01340      0.00095      0.04490      0.01066      
14200   0.07709    0.01276    0.01712    0.00085      0.04499      0.01360      0.00081      0.04341      0.01303      
14300   0.07796    0.01278    0.01721    0.00087      0.04591      0.01186      0.00075      0.04488      0.00942      
14400   0.07728    0.01277    0.01725    0.00096      0.04524      0.01063      0.00086      0.04351      0.00781      
14500   0.07833    0.01284    0.01735    0.00119      0.04578      0.01165      0.00109      0.04471      0.00789      
14600   0.07675    0.01280    0.01731    0.00049      0.04482      0.01318      0.00037      0.04426      0.01156      
14700   0.07725    0.01286    0.01733    0.00055      0.04524      0.01259      0.00044      0.04437      0.00868      
14800   0.07838    0.01274    0.01714    0.00139      0.04493      0.02184      0.00117      0.04391      0.01840      
14900   0.07749    0.01270    0.01709    0.00127      0.04502      0.01411      0.00105      0.05080      0.01218      
15000   0.07722    0.01276    0.01713    0.00045      0.04454      0.02341      0.00036      0.04675      0.01926      
15100   0.07694    0.01274    0.01711    0.00061      0.04460      0.01879      0.00050      0.04360      0.01498      
15200   0.07670    0.01272    0.01707    0.00142      0.04452      0.00977      0.00114      0.04447      0.00751      
15300   0.07581    0.01269    0.01703    0.00049      0.04441      0.01193      0.00039      0.04303      0.01007      
15400   0.07592    0.01275    0.01706    0.00068      0.04410      0.01341      0.00062      0.04301      0.01134      
15500   0.07649    0.01280    0.01715    0.00081      0.04445      0.01280      0.00081      0.04380      0.00874      
15600   0.07591    0.01268    0.01699    0.00073      0.04364      0.01870      0.00071      0.04258      0.01573      
15700   0.07508    0.01268    0.01694    0.00045      0.04344      0.01571      0.00039      0.04195      0.01062      
15800   0.07472    0.01264    0.01692    0.00067      0.04315      0.01343      0.00072      0.04242      0.01069      
15900   0.07457    0.01258    0.01686    0.00077      0.04328      0.01088      0.00075      0.04241      0.00899      
16000   0.07431    0.01258    0.01684    0.00068      0.04324      0.00968      0.00066      0.04206      0.00802      
16100   0.07471    0.01252    0.01678    0.00125      0.04321      0.00951      0.00103      0.04259      0.00799      
16200   0.07468    0.01248    0.01673    0.00087      0.04341      0.01190      0.00081      0.04201      0.01073      
16300   0.07476    0.01246    0.01663    0.00115      0.04347      0.01049      0.00106      0.04215      0.00866      
16400   0.07445    0.01243    0.01657    0.00055      0.04378      0.01115      0.00051      0.04243      0.00880      
16500   0.07323    0.01236    0.01651    0.00077      0.04242      0.01174      0.00072      0.04113      0.01030      
16600   0.07325    0.01244    0.01668    0.00034      0.04278      0.01012      0.00031      0.04156      0.00742      
16700   0.07330    0.01238    0.01656    0.00069      0.04276      0.00902      0.00065      0.04132      0.00879      
16800   0.07446    0.01235    0.01654    0.00160      0.04261      0.01359      0.00133      0.04124      0.01056      
16900   0.07356    0.01234    0.01647    0.00044      0.04303      0.01284      0.00038      0.04245      0.00943      
17000   0.07318    0.01231    0.01649    0.00094      0.04228      0.01161      0.00090      0.04125      0.00949      
17100   0.07366    0.01230    0.01644    0.00058      0.04325      0.01085      0.00058      0.04218      0.00944      
17200   0.07359    0.01229    0.01640    0.00113      0.04288      0.00887      0.00121      0.04182      0.00696      
17300   0.07279    0.01229    0.01639    0.00037      0.04270      0.01049      0.00038      0.04140      0.00783      
17400   0.07327    0.01226    0.01632    0.00089      0.04282      0.00987      0.00097      0.04121      0.00812      
17500   0.07349    0.01225    0.01632    0.00035      0.04325      0.01319      0.00038      0.04223      0.01234      
17600   0.07270    0.01222    0.01633    0.00030      0.04294      0.00923      0.00031      0.04148      0.00735      
17700   0.07248    0.01215    0.01622    0.00055      0.04256      0.01006      0.00062      0.04134      0.00830      
17800   0.07200    0.01220    0.01630    0.00052      0.04209      0.00897      0.00046      0.04108      0.00729      
17900   0.07242    0.01225    0.01637    0.00051      0.04226      0.01024      0.00054      0.04154      0.00890      
18000   0.07279    0.01226    0.01639    0.00062      0.04204      0.01479      0.00055      0.04121      0.01424      
18100   0.07236    0.01217    0.01637    0.00063      0.04225      0.00927      0.00056      0.04153      0.00741      
18200   0.07166    0.01216    0.01630    0.00044      0.04176      0.01012      0.00046      0.04068      0.00695      
18300   0.07170    0.01206    0.01620    0.00038      0.04204      0.01008      0.00043      0.04064      0.00804      
18400   0.07142    0.01207    0.01619    0.00061      0.04160      0.00946      0.00060      0.03983      0.00704      
18500   0.07092    0.01201    0.01615    0.00047      0.04141      0.00894      0.00037      0.04016      0.00653      
18600   0.07163    0.01192    0.01603    0.00033      0.04187      0.01477      0.00032      0.04077      0.01296      
18700   0.07101    0.01189    0.01596    0.00056      0.04167      0.00928      0.00058      0.03999      0.00697      
18800   0.07007    0.01187    0.01594    0.00051      0.04094      0.00810      0.00060      0.03964      0.00681      
18900   0.07087    0.01187    0.01597    0.00083      0.04135      0.00856      0.00088      0.04030      0.00766      
19000   0.07019    0.01185    0.01598    0.00055      0.04101      0.00812      0.00053      0.03991      0.00759      
19100   0.07083    0.01185    0.01596    0.00061      0.04109      0.01312      0.00052      0.03980      0.01000      
19200   0.07016    0.01185    0.01595    0.00072      0.04074      0.00904      0.00073      0.03982      0.00815      
19300   0.07043    0.01178    0.01586    0.00043      0.04115      0.01205      0.00041      0.04035      0.00898      
19400   0.07014    0.01171    0.01580    0.00046      0.04125      0.00928      0.00055      0.04020      0.00855      
19500   0.07014    0.01174    0.01580    0.00031      0.04105      0.01252      0.00040      0.03967      0.00908      
19600   0.06984    0.01169    0.01576    0.00041      0.04088      0.01099      0.00038      0.04071      0.01064      
19700   0.06970    0.01164    0.01566    0.00060      0.04070      0.01102      0.00058      0.04035      0.00830      
19800   0.07013    0.01167    0.01572    0.00082      0.04106      0.00857      0.00068      0.03962      0.00676      
19900   0.07019    0.01169    0.01573    0.00060      0.04128      0.00883      0.00056      0.04002      0.00694      
20000   0.06987    0.01170    0.01578    0.00062      0.04090      0.00865      0.00063      0.03959      0.00701      
20100   0.06980    0.01169    0.01572    0.00058      0.04075      0.01075      0.00056      0.03967      0.00992      
20200   0.06955    0.01160    0.01565    0.00074      0.04067      0.00877      0.00062      0.03934      0.00695      
20300   0.06905    0.01156    0.01562    0.00076      0.04002      0.01098      0.00070      0.03889      0.00780      
20400   0.06957    0.01162    0.01568    0.00035      0.04055      0.01355      0.00032      0.03955      0.01082      
20500   0.06968    0.01163    0.01566    0.00096      0.04056      0.00874      0.00090      0.03932      0.00693      
20600   0.06905    0.01169    0.01574    0.00038      0.04043      0.00816      0.00032      0.03950      0.00634      
20700   0.06860    0.01165    0.01568    0.00028      0.04016      0.00821      0.00037      0.03930      0.00678      
20800   0.06922    0.01160    0.01563    0.00047      0.04025      0.01269      0.00058      0.03965      0.01106      
20900   0.06869    0.01166    0.01568    0.00053      0.03997      0.00851      0.00050      0.03875      0.00645      
21000   0.06872    0.01162    0.01568    0.00035      0.04004      0.01024      0.00042      0.03895      0.00861      
21100   0.06903    0.01162    0.01566    0.00053      0.04012      0.01111      0.00045      0.03897      0.01005      
21200   0.06818    0.01154    0.01557    0.00062      0.03964      0.00821      0.00062      0.03837      0.00731      
21300   0.06801    0.01152    0.01556    0.00040      0.03979      0.00744      0.00041      0.03836      0.00585      
21400   0.06785    0.01151    0.01548    0.00057      0.03952      0.00768      0.00052      0.03893      0.00584      
21500   0.06774    0.01150    0.01545    0.00059      0.03923      0.00974      0.00064      0.03903      0.00803      
21600   0.06821    0.01150    0.01546    0.00047      0.03991      0.00873      0.00049      0.03838      0.00802      
21700   0.06813    0.01143    0.01537    0.00053      0.03988      0.00919      0.00055      0.03837      0.00688      
21800   0.06781    0.01141    0.01534    0.00043      0.03980      0.00823      0.00041      0.03864      0.00636      
21900   0.06767    0.01138    0.01530    0.00047      0.03975      0.00777      0.00044      0.03872      0.00632      
22000   0.06769    0.01132    0.01523    0.00058      0.03964      0.00927      0.00051      0.03947      0.00774      
22100   0.06721    0.01128    0.01515    0.00035      0.03939      0.01039      0.00033      0.03841      0.00893      
22200   0.06686    0.01126    0.01512    0.00036      0.03927      0.00855      0.00036      0.03792      0.00687      
22300   0.06704    0.01123    0.01508    0.00040      0.03946      0.00862      0.00039      0.03890      0.00712      
22400   0.06691    0.01115    0.01496    0.00057      0.03940      0.00826      0.00047      0.03827      0.00588      
22500   0.06650    0.01109    0.01488    0.00030      0.03942      0.00805      0.00037      0.03873      0.00618      
22600   0.06659    0.01110    0.01491    0.00040      0.03935      0.00823      0.00050      0.03870      0.00667      
22700   0.06649    0.01099    0.01477    0.00033      0.03952      0.00878      0.00037      0.03869      0.00728      
22800   0.06644    0.01098    0.01475    0.00066      0.03920      0.00848      0.00059      0.03825      0.00773      
22900   0.06607    0.01093    0.01471    0.00038      0.03926      0.00787      0.00037      0.03862      0.00709      
23000   0.06644    0.01093    0.01475    0.00046      0.03945      0.00846      0.00041      0.03876      0.00779      
23100   0.06618    0.01088    0.01469    0.00037      0.03942      0.00814      0.00046      0.03894      0.00726      
23200   0.06600    0.01083    0.01462    0.00033      0.03942      0.00794      0.00034      0.03887      0.00750      
23300   0.06594    0.01076    0.01456    0.00037      0.03945      0.00795      0.00040      0.03902      0.00701      
23400   0.06557    0.01079    0.01458    0.00037      0.03912      0.00716      0.00042      0.03866      0.00579      
23500   0.06528    0.01071    0.01454    0.00030      0.03901      0.00720      0.00042      0.03840      0.00626      
23600   0.06527    0.01073    0.01454    0.00032      0.03884      0.00826      0.00036      0.03806      0.00720      
23700   0.06582    0.01072    0.01453    0.00050      0.03894      0.01125      0.00046      0.03816      0.00965      
23800   0.06531    0.01071    0.01449    0.00039      0.03886      0.00863      0.00043      0.03813      0.00779      
23900   0.06565    0.01071    0.01452    0.00080      0.03889      0.00730      0.00068      0.03816      0.00580      
24000   0.06508    0.01065    0.01444    0.00073      0.03854      0.00730      0.00074      0.03782      0.00605      
24100   0.06483    0.01061    0.01438    0.00026      0.03885      0.00741      0.00034      0.03805      0.00625      
24200   0.06500    0.01060    0.01435    0.00029      0.03885      0.00909      0.00029      0.03819      0.00884      
24300   0.06510    0.01066    0.01437    0.00031      0.03896      0.00809      0.00037      0.03815      0.00704      
24400   0.06495    0.01064    0.01434    0.00033      0.03886      0.00776      0.00031      0.03829      0.00765      
24500   0.06461    0.01060    0.01432    0.00029      0.03878      0.00622      0.00034      0.03845      0.00522      
24600   0.06457    0.01053    0.01421    0.00052      0.03862      0.00693      0.00056      0.03800      0.00617      
24700   0.06445    0.01060    0.01430    0.00036      0.03839      0.00808      0.00041      0.03761      0.00692      
24800   0.06427    0.01055    0.01423    0.00046      0.03834      0.00696      0.00046      0.03806      0.00611      
24900   0.06424    0.01050    0.01417    0.00037      0.03838      0.00817      0.00036      0.03805      0.00732      
25000   0.06436    0.01052    0.01418    0.00060      0.03831      0.00755      0.00058      0.03787      0.00674      
25100   0.06380    0.01044    0.01412    0.00036      0.03814      0.00745      0.00032      0.03774      0.00655      
25200   0.06402    0.01043    0.01413    0.00038      0.03843      0.00647      0.00039      0.03762      0.00572      
25300   0.06379    0.01038    0.01409    0.00026      0.03838      0.00677      0.00033      0.03784      0.00539      
25400   0.06358    0.01032    0.01401    0.00027      0.03829      0.00689      0.00031      0.03770      0.00575      
25500   0.06366    0.01031    0.01401    0.00029      0.03830      0.00752      0.00035      0.03774      0.00668      
25600   0.06330    0.01013    0.01385    0.00043      0.03813      0.00752      0.00048      0.03760      0.00728      
25700   0.06334    0.01010    0.01382    0.00036      0.03831      0.00747      0.00031      0.03760      0.00713      
25800   0.06267    0.01003    0.01373    0.00031      0.03795      0.00650      0.00038      0.03756      0.00538      
25900   0.06294    0.01005    0.01377    0.00034      0.03792      0.00864      0.00039      0.03746      0.00863      
26000   0.06296    0.01005    0.01378    0.00033      0.03812      0.00677      0.00040      0.03737      0.00647      
26100   0.06281    0.00999    0.01369    0.00038      0.03810      0.00645      0.00040      0.03776      0.00568      
26200   0.06288    0.00997    0.01364    0.00075      0.03777      0.00741      0.00065      0.03718      0.00717      
26300   0.06269    0.00997    0.01363    0.00044      0.03789      0.00766      0.00047      0.03737      0.00599      
26400   0.06247    0.00997    0.01363    0.00036      0.03780      0.00718      0.00037      0.03726      0.00694      
26500   0.06242    0.00989    0.01358    0.00030      0.03798      0.00671      0.00037      0.03768      0.00635      
26600   0.06246    0.00993    0.01360    0.00044      0.03780      0.00683      0.00045      0.03727      0.00607      
26700   0.06231    0.00987    0.01354    0.00061      0.03761      0.00694      0.00065      0.03712      0.00580      
26800   0.06214    0.00979    0.01345    0.00027      0.03784      0.00787      0.00032      0.03747      0.00652      
26900   0.06227    0.00979    0.01343    0.00030      0.03784      0.00896      0.00036      0.03738      0.00628      
27000   0.06193    0.00977    0.01341    0.00038      0.03769      0.00689      0.00047      0.03732      0.00672      
27100   0.06186    0.00972    0.01337    0.00034      0.03771      0.00714      0.00042      0.03734      0.00634      
27200   0.06203    0.00973    0.01336    0.00034      0.03779      0.00811      0.00048      0.03727      0.00648      
27300   0.06175    0.00972    0.01338    0.00043      0.03752      0.00698      0.00050      0.03703      0.00595      
27400   0.06170    0.00970    0.01335    0.00031      0.03755      0.00789      0.00039      0.03685      0.00770      
27500   0.06168    0.00968    0.01332    0.00047      0.03757      0.00634      0.00052      0.03672      0.00579      
27600   0.06151    0.00964    0.01329    0.00036      0.03761      0.00623      0.00049      0.03696      0.00571      
27700   0.06148    0.00958    0.01323    0.00036      0.03754      0.00773      0.00035      0.03675      0.00652      
27800   0.06126    0.00963    0.01324    0.00031      0.03737      0.00701      0.00039      0.03683      0.00615      
27900   0.06117    0.00952    0.01316    0.00030      0.03727      0.00907      0.00035      0.03689      0.00921      
28000   0.06127    0.00957    0.01319    0.00036      0.03743      0.00718      0.00041      0.03695      0.00591      
28100   0.06115    0.00949    0.01313    0.00032      0.03747      0.00739      0.00044      0.03724      0.00612      
28200   0.06091    0.00946    0.01311    0.00030      0.03727      0.00774      0.00039      0.03700      0.00662      
28300   0.06107    0.00946    0.01311    0.00034      0.03744      0.00721      0.00043      0.03736      0.00629      
28400   0.06067    0.00948    0.01310    0.00026      0.03711      0.00721      0.00034      0.03667      0.00671      
28500   0.06090    0.00946    0.01310    0.00033      0.03725      0.00763      0.00038      0.03707      0.00703      
28600   0.06048    0.00943    0.01308    0.00024      0.03712      0.00615      0.00037      0.03675      0.00558      
28700   0.06070    0.00938    0.01300    0.00031      0.03729      0.00715      0.00038      0.03673      0.00704      
28800   0.06087    0.00942    0.01303    0.00031      0.03740      0.00717      0.00034      0.03686      0.00479      
28900   0.06053    0.00934    0.01297    0.00048      0.03703      0.00705      0.00048      0.03672      0.00661      
29000   0.06035    0.00933    0.01295    0.00026      0.03700      0.00815      0.00029      0.03663      0.00794      
29100   0.06065    0.00938    0.01299    0.00037      0.03710      0.00802      0.00040      0.03689      0.00773      
29200   0.06014    0.00932    0.01293    0.00025      0.03699      0.00649      0.00032      0.03666      0.00558      
29300   0.06016    0.00931    0.01289    0.00036      0.03688      0.00730      0.00038      0.03640      0.00665      
29400   0.06013    0.00925    0.01285    0.00039      0.03699      0.00650      0.00039      0.03659      0.00551      
29500   0.06001    0.00919    0.01280    0.00049      0.03686      0.00687      0.00045      0.03640      0.00643      
29600   0.05995    0.00920    0.01279    0.00027      0.03698      0.00716      0.00028      0.03653      0.00651      
29700   0.06000    0.00920    0.01278    0.00044      0.03696      0.00624      0.00045      0.03643      0.00584      
29800   0.05987    0.00919    0.01276    0.00028      0.03699      0.00652      0.00034      0.03658      0.00575      
29900   0.05995    0.00920    0.01277    0.00041      0.03696      0.00606      0.00046      0.03644      0.00561      
30000   0.05996    0.00921    0.01279    0.00035      0.03672      0.00876      0.00042      0.03619      0.00699      
30100   0.05959    0.00909    0.01269    0.00041      0.03675      0.00642      0.00042      0.03629      0.00563      
30200   0.05946    0.00908    0.01269    0.00040      0.03670      0.00582      0.00047      0.03621      0.00499      
30300   0.05939    0.00910    0.01270    0.00024      0.03670      0.00640      0.00032      0.03636      0.00638      
30400   0.05960    0.00908    0.01269    0.00024      0.03673      0.00859      0.00029      0.03616      0.00777      
30500   0.05931    0.00906    0.01265    0.00033      0.03666      0.00605      0.00037      0.03614      0.00511      
30600   0.05926    0.00902    0.01262    0.00029      0.03663      0.00698      0.00034      0.03592      0.00683      
30700   0.05921    0.00897    0.01256    0.00026      0.03670      0.00724      0.00036      0.03611      0.00623      
30800   0.05904    0.00896    0.01254    0.00025      0.03657      0.00714      0.00032      0.03595      0.00622      
30900   0.05911    0.00896    0.01255    0.00039      0.03656      0.00650      0.00039      0.03617      0.00508      
31000   0.05883    0.00890    0.01250    0.00027      0.03646      0.00706      0.00033      0.03606      0.00676      
31100   0.05890    0.00888    0.01247    0.00027      0.03656      0.00724      0.00034      0.03607      0.00671      
31200   0.05879    0.00888    0.01246    0.00031      0.03651      0.00637      0.00040      0.03605      0.00539      
31300   0.05879    0.00883    0.01239    0.00036      0.03662      0.00597      0.00036      0.03597      0.00550      
31400   0.05886    0.00887    0.01239    0.00028      0.03671      0.00607      0.00029      0.03641      0.00592      
31500   0.05863    0.00883    0.01238    0.00024      0.03659      0.00603      0.00034      0.03579      0.00511      
31600   0.05874    0.00880    0.01235    0.00039      0.03659      0.00619      0.00039      0.03584      0.00485      
31700   0.05857    0.00878    0.01233    0.00028      0.03656      0.00623      0.00033      0.03589      0.00600      
31800   0.05849    0.00875    0.01231    0.00024      0.03652      0.00681      0.00035      0.03597      0.00622      
31900   0.05819    0.00873    0.01227    0.00031      0.03630      0.00596      0.00035      0.03577      0.00536      
32000   0.05826    0.00870    0.01224    0.00042      0.03626      0.00633      0.00040      0.03571      0.00515      
32100   0.05811    0.00869    0.01222    0.00028      0.03630      0.00611      0.00044      0.03565      0.00528      
32200   0.05802    0.00864    0.01220    0.00033      0.03620      0.00645      0.00042      0.03586      0.00571      
32300   0.05791    0.00865    0.01220    0.00023      0.03624      0.00598      0.00032      0.03555      0.00502      
32400   0.05795    0.00864    0.01218    0.00028      0.03615      0.00692      0.00042      0.03564      0.00578      
32500   0.05803    0.00864    0.01216    0.00042      0.03617      0.00641      0.00039      0.03544      0.00556      
32600   0.05784    0.00857    0.01212    0.00039      0.03613      0.00625      0.00036      0.03553      0.00590      
32700   0.05760    0.00853    0.01207    0.00026      0.03614      0.00597      0.00035      0.03553      0.00537      
32800   0.05785    0.00850    0.01206    0.00037      0.03615      0.00769      0.00040      0.03562      0.00730      
32900   0.05772    0.00852    0.01204    0.00041      0.03609      0.00656      0.00049      0.03567      0.00557      
33000   0.05768    0.00852    0.01204    0.00024      0.03621      0.00670      0.00031      0.03579      0.00625      
33100   0.05776    0.00850    0.01201    0.00053      0.03610      0.00614      0.00047      0.03563      0.00544      
33200   0.05765    0.00845    0.01198    0.00030      0.03605      0.00871      0.00042      0.03551      0.00802      
33300   0.05734    0.00842    0.01195    0.00024      0.03610      0.00627      0.00032      0.03556      0.00555      
33400   0.05723    0.00843    0.01195    0.00023      0.03596      0.00659      0.00032      0.03549      0.00605      
33500   0.05723    0.00836    0.01191    0.00031      0.03598      0.00669      0.00040      0.03536      0.00591      
33600   0.05715    0.00837    0.01191    0.00026      0.03594      0.00664      0.00034      0.03545      0.00533      
33700   0.05732    0.00838    0.01189    0.00042      0.03597      0.00660      0.00041      0.03560      0.00567      
33800   0.05729    0.00835    0.01185    0.00035      0.03597      0.00767      0.00040      0.03543      0.00670      
33900   0.05696    0.00832    0.01183    0.00024      0.03596      0.00609      0.00032      0.03544      0.00532      
34000   0.05700    0.00829    0.01182    0.00025      0.03600      0.00637      0.00036      0.03533      0.00545      
34100   0.05700    0.00832    0.01181    0.00025      0.03589      0.00732      0.00032      0.03534      0.00623      
34200   0.05687    0.00827    0.01178    0.00029      0.03588      0.00646      0.00036      0.03535      0.00571      
34300   0.05679    0.00830    0.01179    0.00030      0.03581      0.00592      0.00037      0.03529      0.00498      
34400   0.05687    0.00825    0.01174    0.00029      0.03599      0.00609      0.00032      0.03548      0.00546      
34500   0.05679    0.00827    0.01176    0.00027      0.03584      0.00650      0.00037      0.03528      0.00560      
34600   0.05667    0.00826    0.01174    0.00022      0.03583      0.00618      0.00034      0.03534      0.00579      
34700   0.05669    0.00821    0.01169    0.00032      0.03585      0.00616      0.00035      0.03533      0.00582      
34800   0.05652    0.00816    0.01164    0.00024      0.03586      0.00617      0.00036      0.03565      0.00540      
34900   0.05660    0.00813    0.01161    0.00032      0.03587      0.00664      0.00038      0.03559      0.00562      
35000   0.05647    0.00814    0.01162    0.00023      0.03592      0.00562      0.00032      0.03571      0.00506      
35100   0.05650    0.00810    0.01159    0.00031      0.03585      0.00659      0.00039      0.03556      0.00625      
35200   0.05636    0.00808    0.01156    0.00028      0.03587      0.00576      0.00033      0.03538      0.00513      
35300   0.05638    0.00808    0.01155    0.00025      0.03583      0.00667      0.00040      0.03539      0.00590      
35400   0.05620    0.00805    0.01152    0.00024      0.03574      0.00649      0.00034      0.03531      0.00585      
35500   0.05615    0.00802    0.01149    0.00025      0.03579      0.00595      0.00041      0.03563      0.00536      
35600   0.05616    0.00800    0.01147    0.00027      0.03575      0.00662      0.00035      0.03542      0.00588      
35700   0.05596    0.00797    0.01144    0.00029      0.03567      0.00585      0.00033      0.03530      0.00529      
35800   0.05593    0.00795    0.01143    0.00032      0.03566      0.00575      0.00045      0.03514      0.00485      
35900   0.05599    0.00795    0.01143    0.00025      0.03568      0.00673      0.00037      0.03502      0.00546      
36000   0.05585    0.00794    0.01140    0.00023      0.03561      0.00674      0.00032      0.03517      0.00532      
36100   0.05581    0.00792    0.01139    0.00021      0.03561      0.00682      0.00032      0.03524      0.00557      
36200   0.05598    0.00793    0.01139    0.00031      0.03570      0.00653      0.00035      0.03533      0.00573      
36300   0.05587    0.00788    0.01136    0.00033      0.03562      0.00676      0.00048      0.03496      0.00607      
36400   0.05576    0.00788    0.01134    0.00031      0.03560      0.00620      0.00031      0.03504      0.00488      
36500   0.05570    0.00781    0.01130    0.00030      0.03563      0.00653      0.00037      0.03509      0.00606      
36600   0.05548    0.00779    0.01129    0.00031      0.03550      0.00578      0.00034      0.03524      0.00487      
36700   0.05547    0.00781    0.01128    0.00024      0.03550      0.00645      0.00038      0.03522      0.00514      
36800   0.05541    0.00775    0.01125    0.00033      0.03549      0.00589      0.00043      0.03514      0.00526      
36900   0.05528    0.00771    0.01123    0.00024      0.03546      0.00644      0.00030      0.03518      0.00643      
37000   0.05518    0.00767    0.01119    0.00027      0.03551      0.00542      0.00034      0.03512      0.00460      
37100   0.05518    0.00766    0.01118    0.00025      0.03548      0.00607      0.00036      0.03518      0.00536      
37200   0.05518    0.00765    0.01116    0.00025      0.03550      0.00609      0.00032      0.03505      0.00598      
37300   0.05513    0.00761    0.01113    0.00028      0.03549      0.00621      0.00033      0.03490      0.00585      
37400   0.05511    0.00762    0.01113    0.00025      0.03553      0.00585      0.00032      0.03480      0.00481      
37500   0.05504    0.00759    0.01109    0.00028      0.03547      0.00617      0.00032      0.03494      0.00514      
37600   0.05489    0.00758    0.01108    0.00023      0.03537      0.00625      0.00034      0.03494      0.00493      
37700   0.05483    0.00757    0.01107    0.00027      0.03532      0.00593      0.00037      0.03481      0.00519      
37800   0.05481    0.00753    0.01103    0.00030      0.03534      0.00611      0.00036      0.03483      0.00503      
37900   0.05481    0.00758    0.01105    0.00028      0.03535      0.00556      0.00034      0.03498      0.00460      
38000   0.05473    0.00755    0.01103    0.00031      0.03528      0.00571      0.00033      0.03463      0.00508      
38100   0.05461    0.00751    0.01100    0.00022      0.03527      0.00593      0.00035      0.03482      0.00508      
38200   0.05464    0.00751    0.01099    0.00028      0.03529      0.00569      0.00039      0.03463      0.00459      
38300   0.05473    0.00751    0.01100    0.00037      0.03526      0.00588      0.00046      0.03462      0.00529      
38400   0.05456    0.00749    0.01098    0.00023      0.03531      0.00551      0.00031      0.03464      0.00476      
38500   0.05456    0.00748    0.01096    0.00029      0.03528      0.00549      0.00034      0.03470      0.00498      
38600   0.05448    0.00745    0.01094    0.00026      0.03520      0.00642      0.00037      0.03463      0.00529      
38700   0.05455    0.00744    0.01094    0.00032      0.03525      0.00604      0.00039      0.03481      0.00532      
38800   0.05448    0.00744    0.01093    0.00027      0.03526      0.00576      0.00033      0.03462      0.00499      
38900   0.05455    0.00744    0.01092    0.00033      0.03521      0.00645      0.00038      0.03463      0.00571      
39000   0.05446    0.00742    0.01091    0.00026      0.03525      0.00621      0.00039      0.03468      0.00497      
39100   0.05434    0.00743    0.01091    0.00026      0.03511      0.00632      0.00033      0.03462      0.00537      
39200   0.05432    0.00741    0.01089    0.00024      0.03514      0.00643      0.00030      0.03456      0.00610      
39300   0.05418    0.00739    0.01087    0.00023      0.03515      0.00551      0.00032      0.03449      0.00459      
39400   0.05416    0.00738    0.01086    0.00025      0.03508      0.00596      0.00033      0.03438      0.00576      
39500   0.05421    0.00735    0.01084    0.00035      0.03509      0.00585      0.00036      0.03449      0.00573      
39600   0.05401    0.00731    0.01082    0.00020      0.03509      0.00595      0.00031      0.03448      0.00477      
39700   0.05397    0.00732    0.01081    0.00031      0.03500      0.00531      0.00034      0.03436      0.00452      
39800   0.05407    0.00731    0.01080    0.00024      0.03510      0.00610      0.00037      0.03473      0.00480      
39900   0.05394    0.00731    0.01079    0.00025      0.03501      0.00586      0.00036      0.03446      0.00565      
40000   0.05392    0.00729    0.01078    0.00028      0.03499      0.00587      0.00029      0.03428      0.00454      
40100   0.05387    0.00723    0.01074    0.00027      0.03499      0.00645      0.00035      0.03440      0.00553      
40200   0.05375    0.00723    0.01074    0.00027      0.03492      0.00585      0.00036      0.03435      0.00492      
40300   0.05364    0.00721    0.01073    0.00022      0.03486      0.00619      0.00029      0.03420      0.00568      
40400   0.05369    0.00720    0.01071    0.00025      0.03495      0.00587      0.00026      0.03442      0.00478      
40500   0.05362    0.00722    0.01071    0.00022      0.03492      0.00546      0.00036      0.03429      0.00456      
40600   0.05361    0.00719    0.01071    0.00021      0.03492      0.00576      0.00032      0.03421      0.00517      
40700   0.05353    0.00717    0.01069    0.00027      0.03484      0.00556      0.00031      0.03420      0.00485      
40800   0.05357    0.00716    0.01068    0.00027      0.03487      0.00599      0.00029      0.03417      0.00434      
40900   0.05353    0.00713    0.01067    0.00030      0.03489      0.00541      0.00032      0.03420      0.00452      
41000   0.05347    0.00714    0.01066    0.00024      0.03485      0.00580      0.00033      0.03422      0.00424      
41100   0.05341    0.00711    0.01064    0.00031      0.03481      0.00538      0.00034      0.03422      0.00449      
41200   0.05326    0.00707    0.01062    0.00022      0.03479      0.00558      0.00033      0.03428      0.00512      
41300   0.05324    0.00707    0.01062    0.00026      0.03476      0.00533      0.00032      0.03426      0.00447      
41400   0.05326    0.00708    0.01062    0.00020      0.03481      0.00555      0.00029      0.03426      0.00498      
41500   0.05325    0.00705    0.01061    0.00025      0.03481      0.00527      0.00030      0.03420      0.00414      
41600   0.05317    0.00704    0.01060    0.00022      0.03480      0.00506      0.00027      0.03416      0.00434      
41700   0.05311    0.00704    0.01060    0.00020      0.03471      0.00562      0.00028      0.03414      0.00496      
41800   0.05318    0.00703    0.01060    0.00025      0.03477      0.00531      0.00028      0.03417      0.00469      
41900   0.05321    0.00705    0.01059    0.00025      0.03474      0.00579      0.00030      0.03410      0.00451      
42000   0.05316    0.00703    0.01058    0.00024      0.03466      0.00652      0.00031      0.03403      0.00493      
42100   0.05309    0.00701    0.01056    0.00024      0.03471      0.00570      0.00028      0.03413      0.00505      
42200   0.05311    0.00702    0.01058    0.00023      0.03467      0.00608      0.00030      0.03401      0.00503      
42300   0.05289    0.00697    0.01054    0.00021      0.03461      0.00554      0.00030      0.03410      0.00492      
42400   0.05290    0.00699    0.01054    0.00022      0.03458      0.00568      0.00026      0.03384      0.00471      
42500   0.05290    0.00696    0.01053    0.00022      0.03460      0.00586      0.00026      0.03377      0.00455      
42600   0.05280    0.00691    0.01050    0.00023      0.03466      0.00512      0.00031      0.03388      0.00399      
42700   0.05278    0.00692    0.01050    0.00026      0.03455      0.00559      0.00033      0.03383      0.00448      
42800   0.05279    0.00691    0.01049    0.00025      0.03454      0.00593      0.00034      0.03399      0.00414      
42900   0.05278    0.00689    0.01049    0.00022      0.03448      0.00709      0.00031      0.03404      0.00511      
43000   0.05268    0.00690    0.01048    0.00026      0.03448      0.00561      0.00034      0.03380      0.00407      
43100   0.05266    0.00689    0.01048    0.00030      0.03442      0.00564      0.00031      0.03370      0.00445      
43200   0.05249    0.00686    0.01047    0.00021      0.03434      0.00607      0.00026      0.03372      0.00453      
43300   0.05253    0.00686    0.01047    0.00021      0.03444      0.00544      0.00032      0.03396      0.00436      
43400   0.05247    0.00684    0.01044    0.00024      0.03437      0.00583      0.00032      0.03365      0.00503      
43500   0.05253    0.00684    0.01044    0.00026      0.03442      0.00568      0.00029      0.03362      0.00427      
43600   0.05238    0.00683    0.01043    0.00026      0.03431      0.00556      0.00032      0.03360      0.00473      
43700   0.05237    0.00679    0.01041    0.00023      0.03431      0.00623      0.00032      0.03354      0.00566      
43800   0.05233    0.00678    0.01041    0.00022      0.03434      0.00577      0.00031      0.03368      0.00424      
43900   0.05223    0.00676    0.01039    0.00023      0.03429      0.00565      0.00029      0.03356      0.00429      
44000   0.05223    0.00676    0.01038    0.00021      0.03432      0.00560      0.00031      0.03375      0.00447      
44100   0.05227    0.00675    0.01037    0.00026      0.03435      0.00538      0.00030      0.03379      0.00463      
44200   0.05221    0.00674    0.01036    0.00023      0.03433      0.00561      0.00028      0.03365      0.00495      
44300   0.05223    0.00674    0.01036    0.00024      0.03431      0.00584      0.00031      0.03371      0.00506      
44400   0.05216    0.00676    0.01036    0.00022      0.03427      0.00560      0.00030      0.03355      0.00462      
44500   0.05215    0.00672    0.01034    0.00021      0.03436      0.00524      0.00030      0.03377      0.00394      
44600   0.05209    0.00672    0.01034    0.00023      0.03428      0.00527      0.00028      0.03367      0.00465      
44700   0.05207    0.00671    0.01033    0.00027      0.03422      0.00549      0.00030      0.03358      0.00443      
44800   0.05205    0.00670    0.01031    0.00023      0.03429      0.00521      0.00030      0.03380      0.00466      
44900   0.05201    0.00668    0.01031    0.00023      0.03427      0.00517      0.00032      0.03385      0.00459      
45000   0.05202    0.00667    0.01030    0.00024      0.03426      0.00557      0.00027      0.03381      0.00488      
45100   0.05189    0.00666    0.01029    0.00026      0.03417      0.00519      0.00030      0.03375      0.00467      
45200   0.05184    0.00664    0.01028    0.00024      0.03415      0.00529      0.00033      0.03366      0.00471      
45300   0.05181    0.00663    0.01026    0.00024      0.03412      0.00555      0.00029      0.03358      0.00420      
45400   0.05180    0.00662    0.01025    0.00026      0.03414      0.00526      0.00027      0.03371      0.00437      
45500   0.05166    0.00660    0.01024    0.00021      0.03407      0.00539      0.00029      0.03355      0.00429      
45600   0.05168    0.00658    0.01021    0.00026      0.03411      0.00516      0.00029      0.03363      0.00436      
45700   0.05162    0.00658    0.01021    0.00022      0.03405      0.00548      0.00031      0.03346      0.00427      
45800   0.05162    0.00657    0.01020    0.00021      0.03410      0.00547      0.00029      0.03362      0.00404      
45900   0.05157    0.00657    0.01020    0.00022      0.03403      0.00550      0.00030      0.03367      0.00497      
46000   0.05152    0.00654    0.01019    0.00024      0.03398      0.00561      0.00029      0.03368      0.00482      
46100   0.05152    0.00654    0.01019    0.00023      0.03404      0.00521      0.00031      0.03357      0.00457      
46200   0.05141    0.00653    0.01017    0.00025      0.03394      0.00511      0.00035      0.03362      0.00436      
46300   0.05142    0.00651    0.01016    0.00024      0.03401      0.00500      0.00029      0.03357      0.00443      
46400   0.05137    0.00650    0.01016    0.00025      0.03393      0.00527      0.00027      0.03355      0.00407      
46500   0.05127    0.00650    0.01016    0.00022      0.03391      0.00485      0.00028      0.03347      0.00419      
46600   0.05127    0.00651    0.01015    0.00022      0.03386      0.00524      0.00032      0.03343      0.00453      
46700   0.05136    0.00651    0.01015    0.00025      0.03391      0.00544      0.00029      0.03344      0.00400      
46800   0.05127    0.00648    0.01014    0.00022      0.03391      0.00520      0.00031      0.03340      0.00479      
46900   0.05132    0.00650    0.01014    0.00023      0.03387      0.00582      0.00031      0.03343      0.00544      
47000   0.05121    0.00646    0.01011    0.00022      0.03385      0.00568      0.00032      0.03337      0.00466      
47100   0.05120    0.00646    0.01011    0.00025      0.03386      0.00514      0.00033      0.03348      0.00471      
47200   0.05118    0.00646    0.01010    0.00025      0.03386      0.00511      0.00035      0.03352      0.00426      
47300   0.05112    0.00644    0.01009    0.00022      0.03386      0.00519      0.00030      0.03334      0.00406      
47400   0.05116    0.00644    0.01008    0.00027      0.03381      0.00555      0.00034      0.03332      0.00434      
47500   0.05107    0.00643    0.01008    0.00024      0.03380      0.00517      0.00034      0.03318      0.00434      
47600   0.05103    0.00643    0.01008    0.00022      0.03376      0.00534      0.00034      0.03332      0.00411      
47700   0.05110    0.00643    0.01007    0.00026      0.03382      0.00526      0.00034      0.03339      0.00444      
47800   0.05104    0.00640    0.01005    0.00025      0.03380      0.00537      0.00032      0.03327      0.00439      
47900   0.05108    0.00642    0.01006    0.00025      0.03380      0.00562      0.00031      0.03329      0.00502      
48000   0.05104    0.00641    0.01005    0.00029      0.03376      0.00531      0.00034      0.03324      0.00430      
48100   0.05103    0.00639    0.01004    0.00023      0.03382      0.00557      0.00031      0.03348      0.00444      
48200   0.05100    0.00638    0.01003    0.00022      0.03381      0.00551      0.00031      0.03341      0.00487      
48300   0.05095    0.00637    0.01002    0.00022      0.03379      0.00555      0.00031      0.03327      0.00409      
48400   0.05096    0.00638    0.01002    0.00025      0.03376      0.00555      0.00034      0.03303      0.00445      
48500   0.05091    0.00637    0.01001    0.00022      0.03373      0.00593      0.00031      0.03315      0.00528      
48600   0.05084    0.00635    0.00999    0.00024      0.03370      0.00559      0.00032      0.03309      0.00464      
48700   0.05085    0.00634    0.00998    0.00022      0.03374      0.00562      0.00032      0.03320      0.00392      
48800   0.05085    0.00635    0.00998    0.00026      0.03371      0.00559      0.00032      0.03312      0.00479      
48900   0.05082    0.00632    0.00996    0.00026      0.03375      0.00524      0.00033      0.03322      0.00431      
49000   0.05078    0.00632    0.00995    0.00029      0.03367      0.00548      0.00036      0.03312      0.00445      
49100   0.05071    0.00631    0.00994    0.00024      0.03368      0.00541      0.00031      0.03315      0.00440      
49200   0.05072    0.00631    0.00993    0.00022      0.03365      0.00612      0.00032      0.03312      0.00429      
49300   0.05068    0.00630    0.00992    0.00024      0.03367      0.00547      0.00031      0.03305      0.00377      
49400   0.05059    0.00628    0.00991    0.00023      0.03365      0.00525      0.00031      0.03320      0.00451      
49500   0.05058    0.00628    0.00990    0.00022      0.03363      0.00543      0.00030      0.03318      0.00413      
49600   0.05060    0.00625    0.00988    0.00025      0.03367      0.00534      0.00034      0.03312      0.00380      
49700   0.05057    0.00627    0.00989    0.00023      0.03366      0.00523      0.00031      0.03309      0.00455      
49800   0.05056    0.00626    0.00988    0.00026      0.03360      0.00565      0.00030      0.03304      0.00490      
49900   0.05051    0.00625    0.00987    0.00023      0.03362      0.00547      0.00031      0.03316      0.00468      
50000   0.05052    0.00625    0.00987    0.00021      0.03356      0.00626      0.00029      0.03309      0.00443      
50100   0.05049    0.00625    0.00987    0.00026      0.03356      0.00555      0.00034      0.03304      0.00422      
50200   0.05049    0.00626    0.00987    0.00024      0.03359      0.00535      0.00034      0.03310      0.00481      
50300   0.05042    0.00623    0.00985    0.00025      0.03356      0.00539      0.00034      0.03312      0.00491      
50400   0.05040    0.00623    0.00984    0.00023      0.03355      0.00543      0.00031      0.03309      0.00470      
50500   0.05037    0.00621    0.00983    0.00024      0.03355      0.00538      0.00031      0.03307      0.00413      
50600   0.05032    0.00620    0.00982    0.00022      0.03353      0.00556      0.00032      0.03297      0.00480      
50700   0.05027    0.00618    0.00981    0.00024      0.03349      0.00553      0.00030      0.03286      0.00438      
50800   0.05028    0.00617    0.00981    0.00025      0.03350      0.00553      0.00032      0.03295      0.00416      
50900   0.05024    0.00616    0.00979    0.00025      0.03346      0.00580      0.00032      0.03289      0.00506      
51000   0.05019    0.00615    0.00978    0.00025      0.03346      0.00544      0.00032      0.03290      0.00419      
51100   0.05019    0.00614    0.00977    0.00025      0.03345      0.00575      0.00032      0.03297      0.00437      
51200   0.05015    0.00615    0.00977    0.00024      0.03343      0.00563      0.00034      0.03288      0.00486      
51300   0.05009    0.00612    0.00975    0.00024      0.03343      0.00563      0.00032      0.03286      0.00415      
51400   0.05012    0.00612    0.00975    0.00025      0.03345      0.00544      0.00032      0.03292      0.00378      
51500   0.05009    0.00612    0.00974    0.00024      0.03344      0.00551      0.00033      0.03284      0.00394      
51600   0.05004    0.00610    0.00973    0.00023      0.03345      0.00518      0.00033      0.03297      0.00405      
51700   0.05002    0.00610    0.00972    0.00024      0.03342      0.00542      0.00032      0.03296      0.00442      
51800   0.05007    0.00609    0.00971    0.00025      0.03344      0.00583      0.00035      0.03295      0.00417      
51900   0.05007    0.00606    0.00970    0.00026      0.03348      0.00572      0.00033      0.03293      0.00412      
52000   0.05008    0.00606    0.00969    0.00027      0.03349      0.00568      0.00034      0.03296      0.00409      
52100   0.05010    0.00606    0.00969    0.00028      0.03351      0.00564      0.00036      0.03304      0.00507      
52200   0.05011    0.00603    0.00967    0.00029      0.03355      0.00567      0.00036      0.03296      0.00477      
52300   0.05012    0.00605    0.00967    0.00027      0.03358      0.00556      0.00036      0.03309      0.00381      
52400   0.05019    0.00604    0.00966    0.00031      0.03364      0.00543      0.00040      0.03312      0.00429      
52500   0.05020    0.00604    0.00965    0.00035      0.03356      0.00601      0.00041      0.03314      0.00544      
52600   0.05023    0.00605    0.00965    0.00032      0.03363      0.00582      0.00042      0.03331      0.00449      
52700   0.05030    0.00603    0.00963    0.00039      0.03367      0.00577      0.00048      0.03309      0.00450      
52800   0.05031    0.00601    0.00962    0.00041      0.03368      0.00589      0.00046      0.03325      0.00473      
52900   0.05046    0.00601    0.00961    0.00044      0.03377      0.00627      0.00050      0.03328      0.00574      
53000   0.05044    0.00600    0.00961    0.00045      0.03377      0.00613      0.00049      0.03327      0.00535      
53100   0.05057    0.00602    0.00961    0.00043      0.03386      0.00656      0.00052      0.03342      0.00556      
53200   0.05060    0.00602    0.00961    0.00045      0.03393      0.00585      0.00054      0.03357      0.00477      
53300   0.05039    0.00604    0.00961    0.00029      0.03381      0.00634      0.00036      0.03332      0.00412      
53400   0.05017    0.00606    0.00961    0.00026      0.03363      0.00611      0.00032      0.03323      0.00462      
53500   0.05018    0.00606    0.00961    0.00033      0.03361      0.00571      0.00037      0.03317      0.00389      
53600   0.04997    0.00602    0.00959    0.00023      0.03357      0.00554      0.00028      0.03311      0.00444      
53700   0.04986    0.00602    0.00958    0.00022      0.03350      0.00535      0.00026      0.03308      0.00435      
53800   0.04989    0.00602    0.00959    0.00024      0.03345      0.00591      0.00027      0.03309      0.00520      
53900   0.04977    0.00601    0.00958    0.00027      0.03339      0.00528      0.00031      0.03299      0.00454      
54000   0.04970    0.00599    0.00957    0.00026      0.03333      0.00553      0.00025      0.03287      0.00447      
54100   0.04965    0.00598    0.00957    0.00023      0.03333      0.00548      0.00022      0.03282      0.00467      
54200   0.04958    0.00600    0.00956    0.00024      0.03324      0.00544      0.00027      0.03266      0.00442      
54300   0.04956    0.00598    0.00955    0.00022      0.03325      0.00563      0.00026      0.03277      0.00491      
54400   0.04954    0.00598    0.00954    0.00025      0.03323      0.00535      0.00029      0.03264      0.00454      
54500   0.04949    0.00597    0.00953    0.00022      0.03323      0.00536      0.00031      0.03270      0.00398      
54600   0.04948    0.00599    0.00953    0.00023      0.03319      0.00545      0.00030      0.03272      0.00468      
54700   0.04942    0.00596    0.00952    0.00024      0.03315      0.00552      0.00026      0.03253      0.00447      
54800   0.04937    0.00595    0.00951    0.00022      0.03319      0.00508      0.00026      0.03268      0.00413      
54900   0.04941    0.00595    0.00950    0.00020      0.03315      0.00610      0.00027      0.03262      0.00489      
55000   0.04933    0.00592    0.00948    0.00024      0.03313      0.00546      0.00028      0.03264      0.00457      
55100   0.04928    0.00591    0.00948    0.00023      0.03314      0.00528      0.00023      0.03268      0.00464      
55200   0.04921    0.00590    0.00946    0.00022      0.03306      0.00573      0.00024      0.03251      0.00412      
55300   0.04919    0.00590    0.00946    0.00021      0.03308      0.00543      0.00027      0.03256      0.00441      
55400   0.04915    0.00588    0.00945    0.00025      0.03306      0.00512      0.00031      0.03254      0.00401      
55500   0.04913    0.00587    0.00945    0.00020      0.03306      0.00542      0.00027      0.03251      0.00439      
55600   0.04917    0.00585    0.00944    0.00022      0.03307      0.00593      0.00032      0.03258      0.00469      
55700   0.04907    0.00584    0.00943    0.00022      0.03304      0.00537      0.00028      0.03248      0.00456      
55800   0.04906    0.00586    0.00943    0.00023      0.03302      0.00530      0.00025      0.03246      0.00398      
55900   0.04909    0.00585    0.00942    0.00024      0.03303      0.00544      0.00026      0.03246      0.00415      
56000   0.04908    0.00583    0.00941    0.00021      0.03307      0.00552      0.00026      0.03259      0.00452      
56100   0.04904    0.00582    0.00940    0.00023      0.03306      0.00530      0.00026      0.03257      0.00433      
56200   0.04899    0.00581    0.00940    0.00023      0.03298      0.00570      0.00032      0.03245      0.00408      
56300   0.04893    0.00581    0.00939    0.00020      0.03299      0.00535      0.00027      0.03244      0.00441      
56400   0.04892    0.00581    0.00938    0.00021      0.03299      0.00532      0.00027      0.03245      0.00412      
56500   0.04893    0.00580    0.00937    0.00025      0.03301      0.00500      0.00026      0.03250      0.00398      
56600   0.04887    0.00578    0.00936    0.00021      0.03299      0.00524      0.00025      0.03248      0.00383      
56700   0.04885    0.00577    0.00935    0.00022      0.03297      0.00528      0.00028      0.03249      0.00452      
56800   0.04882    0.00575    0.00934    0.00022      0.03297      0.00536      0.00025      0.03236      0.00424      
56900   0.04881    0.00576    0.00934    0.00025      0.03293      0.00532      0.00027      0.03238      0.00430      
57000   0.04876    0.00575    0.00933    0.00021      0.03295      0.00514      0.00027      0.03246      0.00387      
57100   0.04875    0.00573    0.00932    0.00022      0.03295      0.00515      0.00027      0.03238      0.00437      
57200   0.04872    0.00572    0.00931    0.00021      0.03292      0.00558      0.00027      0.03242      0.00492      
57300   0.04869    0.00571    0.00931    0.00023      0.03294      0.00500      0.00027      0.03237      0.00422      
57400   0.04869    0.00572    0.00930    0.00026      0.03291      0.00498      0.00032      0.03239      0.00401      
57500   0.04868    0.00570    0.00929    0.00024      0.03292      0.00531      0.00026      0.03230      0.00455      
57600   0.04865    0.00570    0.00928    0.00023      0.03293      0.00510      0.00024      0.03230      0.00391      
57700   0.04864    0.00568    0.00927    0.00022      0.03296      0.00511      0.00027      0.03243      0.00370      
57800   0.04861    0.00567    0.00926    0.00022      0.03290      0.00560      0.00028      0.03236      0.00475      
57900   0.04859    0.00567    0.00925    0.00020      0.03293      0.00545      0.00029      0.03241      0.00391      
58000   0.04858    0.00566    0.00925    0.00022      0.03292      0.00540      0.00026      0.03233      0.00446      
58100   0.04852    0.00565    0.00924    0.00022      0.03290      0.00514      0.00026      0.03237      0.00464      
58200   0.04850    0.00565    0.00923    0.00022      0.03290      0.00513      0.00030      0.03237      0.00393      
58300   0.04850    0.00564    0.00923    0.00022      0.03291      0.00511      0.00026      0.03231      0.00394      
58400   0.04845    0.00562    0.00922    0.00020      0.03289      0.00514      0.00027      0.03222      0.00424      
58500   0.04846    0.00561    0.00922    0.00023      0.03288      0.00517      0.00025      0.03220      0.00462      
58600   0.04846    0.00561    0.00921    0.00023      0.03288      0.00528      0.00028      0.03224      0.00402      
58700   0.04842    0.00561    0.00920    0.00020      0.03289      0.00522      0.00027      0.03233      0.00447      
58800   0.04839    0.00560    0.00919    0.00023      0.03287      0.00511      0.00029      0.03226      0.00420      
58900   0.04833    0.00559    0.00919    0.00020      0.03283      0.00519      0.00026      0.03230      0.00421      
59000   0.04830    0.00558    0.00918    0.00020      0.03281      0.00534      0.00026      0.03216      0.00413      
59100   0.04830    0.00557    0.00918    0.00021      0.03279      0.00550      0.00028      0.03229      0.00436      
59200   0.04826    0.00556    0.00916    0.00022      0.03279      0.00516      0.00026      0.03220      0.00406      
59300   0.04824    0.00557    0.00916    0.00020      0.03280      0.00516      0.00027      0.03225      0.00444      
59400   0.04822    0.00557    0.00916    0.00021      0.03276      0.00525      0.00027      0.03214      0.00409      
59500   0.04821    0.00556    0.00914    0.00022      0.03277      0.00527      0.00026      0.03215      0.00435      
59600   0.04818    0.00556    0.00914    0.00020      0.03273      0.00541      0.00027      0.03214      0.00419      
59700   0.04817    0.00555    0.00914    0.00020      0.03273      0.00556      0.00027      0.03214      0.00410      
59800   0.04812    0.00553    0.00913    0.00020      0.03272      0.00535      0.00029      0.03224      0.00456      
59900   0.04809    0.00552    0.00912    0.00021      0.03272      0.00522      0.00027      0.03216      0.00393      
60000   0.04804    0.00551    0.00911    0.00020      0.03271      0.00511      0.00026      0.03214      0.00411      
60100   0.04806    0.00550    0.00910    0.00023      0.03270      0.00529      0.00032      0.03226      0.00462      
60200   0.04805    0.00549    0.00909    0.00022      0.03271      0.00531      0.00027      0.03217      0.00472      
60300   0.04803    0.00549    0.00909    0.00021      0.03272      0.00522      0.00028      0.03223      0.00408      
60400   0.04800    0.00548    0.00908    0.00021      0.03271      0.00524      0.00029      0.03222      0.00420      
60500   0.04800    0.00547    0.00907    0.00022      0.03272      0.00517      0.00027      0.03218      0.00449      
60600   0.04801    0.00547    0.00907    0.00022      0.03276      0.00496      0.00028      0.03221      0.00433      
60700   0.04794    0.00547    0.00906    0.00020      0.03271      0.00510      0.00028      0.03222      0.00398      
60800   0.04794    0.00547    0.00906    0.00019      0.03273      0.00496      0.00028      0.03229      0.00395      
60900   0.04793    0.00544    0.00905    0.00021      0.03271      0.00530      0.00030      0.03225      0.00396      
61000   0.04795    0.00544    0.00904    0.00024      0.03271      0.00510      0.00028      0.03221      0.00413      
61100   0.04788    0.00545    0.00904    0.00020      0.03266      0.00527      0.00027      0.03220      0.00443      
61200   0.04785    0.00544    0.00903    0.00020      0.03266      0.00518      0.00026      0.03217      0.00404      
61300   0.04782    0.00542    0.00902    0.00020      0.03269      0.00492      0.00027      0.03214      0.00410      
61400   0.04777    0.00542    0.00901    0.00020      0.03262      0.00516      0.00028      0.03213      0.00435      
61500   0.04775    0.00541    0.00901    0.00020      0.03262      0.00521      0.00027      0.03215      0.00427      
61600   0.04774    0.00542    0.00901    0.00019      0.03259      0.00521      0.00029      0.03206      0.00401      
61700   0.04775    0.00541    0.00900    0.00022      0.03261      0.00507      0.00032      0.03206      0.00405      
61800   0.04772    0.00540    0.00899    0.00021      0.03258      0.00532      0.00027      0.03207      0.00459      
61900   0.04767    0.00539    0.00899    0.00021      0.03256      0.00523      0.00028      0.03200      0.00433      
62000   0.04767    0.00538    0.00898    0.00020      0.03256      0.00536      0.00028      0.03199      0.00442      
62100   0.04762    0.00537    0.00897    0.00020      0.03255      0.00520      0.00026      0.03206      0.00424      
62200   0.04763    0.00537    0.00897    0.00021      0.03257      0.00517      0.00031      0.03204      0.00407      
62300   0.04759    0.00537    0.00897    0.00020      0.03252      0.00534      0.00026      0.03201      0.00409      
62400   0.04755    0.00536    0.00896    0.00020      0.03254      0.00498      0.00028      0.03206      0.00400      
62500   0.04755    0.00534    0.00895    0.00020      0.03253      0.00516      0.00028      0.03207      0.00427      
62600   0.04753    0.00535    0.00895    0.00020      0.03253      0.00505      0.00028      0.03205      0.00420      
[...]
83800   0.04468    0.00447    0.00825    0.00019      0.03130      0.00477      0.00030      0.03088      0.00389      
83900   0.04467    0.00447    0.00825    0.00019      0.03128      0.00482      0.00030      0.03087      0.00397      
84000   0.04464    0.00446    0.00824    0.00018      0.03128      0.00475      0.00029      0.03087      0.00395      
84100   0.04463    0.00446    0.00824    0.00018      0.03127      0.00484      0.00028      0.03085      0.00401      
84200   0.04463    0.00445    0.00823    0.00018      0.03127      0.00487      0.00029      0.03086      0.00395      
84300   0.04462    0.00445    0.00823    0.00019      0.03128      0.00478      0.00030      0.03082      0.00387      
84400   0.04462    0.00445    0.00823    0.00019      0.03127      0.00489      0.00029      0.03084      0.00408      
84500   0.04461    0.00444    0.00822    0.00018      0.03127      0.00493      0.00028      0.03084      0.00393      
84600   0.04460    0.00444    0.00822    0.00018      0.03127      0.00482      0.00028      0.03085      0.00381      
84700   0.04459    0.00444    0.00822    0.00018      0.03127      0.00483      0.00028      0.03082      0.00376      
84800   0.04458    0.00443    0.00821    0.00018      0.03127      0.00480      0.00028      0.03083      0.00404      
84900   0.04457    0.00443    0.00821    0.00019      0.03125      0.00488      0.00028      0.03080      0.00411      
85000   0.04457    0.00443    0.00821    0.00019      0.03126      0.00483      0.00029      0.03080      0.00387      
85100   0.04456    0.00443    0.00821    0.00018      0.03126      0.00476      0.00029      0.03082      0.00390      
85200   0.04454    0.00443    0.00821    0.00019      0.03124      0.00483      0.00028      0.03077      0.00394      
85300   0.04453    0.00443    0.00820    0.00019      0.03124      0.00478      0.00029      0.03081      0.00392      
85400   0.04453    0.00442    0.00820    0.00019      0.03124      0.00473      0.00029      0.03079      0.00391      
85500   0.04452    0.00442    0.00820    0.00018      0.03123      0.00485      0.00029      0.03082      0.00396      
85600   0.04451    0.00442    0.00820    0.00019      0.03123      0.00479      0.00029      0.03083      0.00404      
85700   0.04451    0.00441    0.00820    0.00019      0.03122      0.00484      0.00029      0.03082      0.00410      
85800   0.04450    0.00441    0.00819    0.00018      0.03123      0.00478      0.00029      0.03083      0.00398      
85900   0.04449    0.00441    0.00819    0.00018      0.03122      0.00484      0.00029      0.03077      0.00399      
86000   0.04449    0.00441    0.00819    0.00019      0.03122      0.00482      0.00029      0.03083      0.00400      
86100   0.04448    0.00441    0.00819    0.00019      0.03121      0.00484      0.00029      0.03083      0.00398      
86200   0.04447    0.00441    0.00819    0.00018      0.03121      0.00484      0.00029      0.03080      0.00398      
86300   0.04447    0.00441    0.00818    0.00019      0.03121      0.00487      0.00028      0.03079      0.00398      
86400   0.04445    0.00440    0.00818    0.00018      0.03120      0.00484      0.00029      0.03079      0.00405      
86500   0.04444    0.00440    0.00818    0.00018      0.03121      0.00476      0.00029      0.03079      0.00398      
86600   0.04443    0.00440    0.00818    0.00018      0.03119      0.00488      0.00029      0.03078      0.00390      
86700   0.04444    0.00439    0.00817    0.00019      0.03120      0.00483      0.00029      0.03078      0.00399      
86800   0.04443    0.00439    0.00817    0.00019      0.03119      0.00481      0.00028      0.03076      0.00393      
86900   0.04442    0.00438    0.00817    0.00019      0.03119      0.00485      0.00028      0.03076      0.00400      
87000   0.04441    0.00438    0.00817    0.00019      0.03119      0.00483      0.00028      0.03075      0.00407      
87100   0.04440    0.00438    0.00817    0.00018      0.03119      0.00477      0.00029      0.03076      0.00391      
87200   0.04440    0.00438    0.00816    0.00019      0.03119      0.00476      0.00029      0.03076      0.00391      
87300   0.04439    0.00437    0.00816    0.00019      0.03119      0.00474      0.00029      0.03075      0.00375      
87400   0.04438    0.00437    0.00816    0.00018      0.03118      0.00483      0.00028      0.03075      0.00393      
87500   0.04437    0.00437    0.00816    0.00019      0.03118      0.00476      0.00029      0.03076      0.00386      
87600   0.04436    0.00437    0.00816    0.00019      0.03117      0.00476      0.00028      0.03074      0.00393      
87700   0.04435    0.00437    0.00815    0.00019      0.03116      0.00485      0.00029      0.03073      0.00398      
87800   0.04434    0.00437    0.00815    0.00019      0.03114      0.00485      0.00028      0.03070      0.00397      
87900   0.04433    0.00437    0.00815    0.00019      0.03113      0.00491      0.00028      0.03068      0.00405      
88000   0.04432    0.00436    0.00815    0.00018      0.03114      0.00483      0.00029      0.03071      0.00395      
88100   0.04431    0.00436    0.00815    0.00019      0.03113      0.00482      0.00029      0.03069      0.00398      
88200   0.04431    0.00436    0.00815    0.00019      0.03113      0.00481      0.00030      0.03071      0.00399      
88300   0.04430    0.00435    0.00815    0.00018      0.03113      0.00486      0.00029      0.03071      0.00403      
88400   0.04430    0.00435    0.00814    0.00019      0.03113      0.00477      0.00028      0.03071      0.00388      
88500   0.04429    0.00435    0.00814    0.00019      0.03112      0.00483      0.00028      0.03069      0.00398      
88600   0.04428    0.00435    0.00814    0.00019      0.03112      0.00481      0.00028      0.03069      0.00383      
88700   0.04427    0.00435    0.00814    0.00018      0.03112      0.00481      0.00028      0.03069      0.00396      
88800   0.04426    0.00435    0.00814    0.00018      0.03112      0.00479      0.00028      0.03069      0.00381      
88900   0.04425    0.00434    0.00813    0.00019      0.03110      0.00484      0.00028      0.03067      0.00407      
89000   0.04425    0.00434    0.00813    0.00019      0.03110      0.00482      0.00029      0.03068      0.00402      
89100   0.04424    0.00434    0.00813    0.00019      0.03111      0.00473      0.00029      0.03069      0.00393      
89200   0.04423    0.00434    0.00813    0.00018      0.03110      0.00484      0.00029      0.03068      0.00396      
89300   0.04422    0.00434    0.00812    0.00019      0.03111      0.00471      0.00029      0.03066      0.00382      
89400   0.04422    0.00433    0.00812    0.00018      0.03110      0.00484      0.00029      0.03068      0.00399      
89500   0.04421    0.00433    0.00812    0.00019      0.03110      0.00478      0.00028      0.03070      0.00390      
89600   0.04420    0.00433    0.00812    0.00018      0.03110      0.00472      0.00028      0.03069      0.00391      
89700   0.04419    0.00433    0.00812    0.00018      0.03109      0.00471      0.00028      0.03068      0.00400      
89800   0.04419    0.00432    0.00812    0.00018      0.03110      0.00464      0.00028      0.03071      0.00384      
89900   0.04417    0.00432    0.00812    0.00019      0.03108      0.00470      0.00029      0.03067      0.00389      
90000   0.04417    0.00432    0.00811    0.00018      0.03108      0.00469      0.00028      0.03069      0.00389      
90100   0.04416    0.00432    0.00811    0.00019      0.03107      0.00466      0.00029      0.03067      0.00392      
90200   0.04416    0.00432    0.00811    0.00019      0.03106      0.00476      0.00028      0.03065      0.00399      
90300   0.04415    0.00432    0.00810    0.00018      0.03107      0.00473      0.00029      0.03067      0.00385      
90400   0.04414    0.00431    0.00810    0.00018      0.03106      0.00481      0.00028      0.03066      0.00398      
90500   0.04413    0.00431    0.00810    0.00018      0.03106      0.00473      0.00029      0.03066      0.00394      
90600   0.04412    0.00431    0.00810    0.00018      0.03105      0.00478      0.00028      0.03064      0.00386      
90700   0.04411    0.00431    0.00810    0.00019      0.03104      0.00481      0.00029      0.03063      0.00394      
90800   0.04411    0.00431    0.00810    0.00019      0.03104      0.00475      0.00028      0.03061      0.00384      
90900   0.04410    0.00430    0.00809    0.00018      0.03104      0.00474      0.00028      0.03062      0.00395      
91000   0.04409    0.00430    0.00809    0.00018      0.03104      0.00475      0.00029      0.03062      0.00397      
91100   0.04408    0.00430    0.00809    0.00018      0.03103      0.00478      0.00028      0.03061      0.00381      
91200   0.04408    0.00430    0.00809    0.00018      0.03103      0.00480      0.00028      0.03063      0.00392      
91300   0.04408    0.00430    0.00809    0.00019      0.03102      0.00477      0.00027      0.03059      0.00404      
91400   0.04407    0.00430    0.00809    0.00019      0.03101      0.00485      0.00029      0.03060      0.00400      
91500   0.04406    0.00430    0.00808    0.00018      0.03102      0.00480      0.00029      0.03063      0.00388      
91600   0.04406    0.00429    0.00808    0.00018      0.03103      0.00473      0.00028      0.03063      0.00378      
91700   0.04405    0.00429    0.00808    0.00018      0.03101      0.00484      0.00029      0.03061      0.00385      
91800   0.04404    0.00429    0.00808    0.00018      0.03101      0.00484      0.00029      0.03062      0.00384      
91900   0.04404    0.00428    0.00808    0.00018      0.03102      0.00481      0.00028      0.03063      0.00392      
92000   0.04403    0.00428    0.00808    0.00018      0.03101      0.00479      0.00029      0.03060      0.00396      
92100   0.04402    0.00428    0.00807    0.00018      0.03100      0.00482      0.00029      0.03060      0.00387      
92200   0.04402    0.00428    0.00807    0.00018      0.03100      0.00482      0.00028      0.03060      0.00384      
92300   0.04401    0.00428    0.00807    0.00018      0.03100      0.00482      0.00029      0.03059      0.00390      
92400   0.04400    0.00428    0.00807    0.00018      0.03099      0.00485      0.00029      0.03059      0.00401      
92500   0.04399    0.00427    0.00806    0.00019      0.03099      0.00476      0.00029      0.03060      0.00399      
92600   0.04399    0.00427    0.00806    0.00018      0.03098      0.00484      0.00029      0.03060      0.00391      
92700   0.04398    0.00427    0.00806    0.00018      0.03098      0.00478      0.00029      0.03061      0.00395      
92800   0.04397    0.00427    0.00806    0.00018      0.03098      0.00479      0.00028      0.03058      0.00383      
92900   0.04397    0.00427    0.00806    0.00018      0.03098      0.00476      0.00029      0.03059      0.00404      
93000   0.04396    0.00426    0.00805    0.00018      0.03098      0.00477      0.00029      0.03059      0.00393      
93100   0.04395    0.00426    0.00805    0.00018      0.03097      0.00486      0.00028      0.03059      0.00402      
93200   0.04394    0.00426    0.00805    0.00019      0.03097      0.00479      0.00029      0.03059      0.00394      
93300   0.04394    0.00426    0.00805    0.00018      0.03097      0.00476      0.00028      0.03060      0.00392      
93400   0.04393    0.00426    0.00805    0.00018      0.03096      0.00481      0.00029      0.03058      0.00387      
93500   0.04392    0.00426    0.00805    0.00018      0.03096      0.00477      0.00028      0.03060      0.00390      
93600   0.04392    0.00425    0.00804    0.00018      0.03096      0.00474      0.00028      0.03059      0.00398      
93700   0.04391    0.00425    0.00804    0.00018      0.03097      0.00470      0.00029      0.03059      0.00380      
93800   0.04390    0.00425    0.00804    0.00019      0.03095      0.00475      0.00030      0.03059      0.00395      
93900   0.04390    0.00425    0.00804    0.00018      0.03095      0.00479      0.00029      0.03059      0.00393      
94000   0.04389    0.00425    0.00804    0.00018      0.03095      0.00478      0.00029      0.03058      0.00389      
94100   0.04388    0.00424    0.00803    0.00018      0.03095      0.00475      0.00029      0.03055      0.00383      
94200   0.04388    0.00424    0.00803    0.00018      0.03095      0.00477      0.00029      0.03056      0.00387      
94300   0.04388    0.00424    0.00803    0.00018      0.03094      0.00481      0.00029      0.03057      0.00399      
94400   0.04387    0.00424    0.00803    0.00018      0.03094      0.00473      0.00029      0.03056      0.00399      
94500   0.04386    0.00424    0.00803    0.00018      0.03093      0.00482      0.00029      0.03054      0.00386      
94600   0.04385    0.00424    0.00803    0.00018      0.03093      0.00473      0.00028      0.03055      0.00383      
94700   0.04384    0.00423    0.00802    0.00018      0.03093      0.00472      0.00029      0.03055      0.00394      
94800   0.04384    0.00423    0.00802    0.00018      0.03093      0.00475      0.00029      0.03054      0.00397      
94900   0.04383    0.00423    0.00802    0.00018      0.03092      0.00473      0.00029      0.03054      0.00391      
95000   0.04382    0.00423    0.00802    0.00018      0.03092      0.00475      0.00028      0.03054      0.00388      
95100   0.04382    0.00423    0.00802    0.00018      0.03091      0.00477      0.00028      0.03054      0.00395      
95200   0.04381    0.00423    0.00801    0.00018      0.03092      0.00471      0.00029      0.03054      0.00384      
95300   0.04380    0.00422    0.00801    0.00018      0.03090      0.00483      0.00028      0.03051      0.00396      
95400   0.04380    0.00422    0.00801    0.00018      0.03091      0.00470      0.00029      0.03054      0.00383      
95500   0.04379    0.00422    0.00801    0.00018      0.03090      0.00477      0.00029      0.03053      0.00393      
95600   0.04379    0.00422    0.00801    0.00018      0.03090      0.00472      0.00029      0.03054      0.00388      
95700   0.04378    0.00422    0.00801    0.00018      0.03089      0.00475      0.00028      0.03051      0.00389      
95800   0.04377    0.00422    0.00801    0.00018      0.03089      0.00479      0.00028      0.03053      0.00384      
95900   0.04377    0.00422    0.00800    0.00019      0.03089      0.00471      0.00029      0.03053      0.00387      
96000   0.04376    0.00421    0.00800    0.00019      0.03088      0.00477      0.00029      0.03052      0.00388      
96100   0.04375    0.00421    0.00800    0.00018      0.03088      0.00476      0.00029      0.03051      0.00388      
96200   0.04375    0.00421    0.00800    0.00018      0.03087      0.00484      0.00029      0.03049      0.00393      
96300   0.04374    0.00421    0.00800    0.00018      0.03088      0.00472      0.00029      0.03050      0.00388      
96400   0.04373    0.00421    0.00799    0.00018      0.03087      0.00474      0.00029      0.03051      0.00387      
96500   0.04373    0.00420    0.00799    0.00018      0.03086      0.00484      0.00029      0.03050      0.00392      
96600   0.04372    0.00420    0.00799    0.00018      0.03087      0.00477      0.00029      0.03050      0.00388      
96700   0.04372    0.00420    0.00799    0.00019      0.03086      0.00473      0.00029      0.03050      0.00394      
96800   0.04371    0.00420    0.00799    0.00018      0.03086      0.00477      0.00028      0.03048      0.00380      
96900   0.04370    0.00420    0.00799    0.00018      0.03086      0.00473      0.00029      0.03050      0.00387      
97000   0.04369    0.00419    0.00799    0.00018      0.03085      0.00472      0.00028      0.03047      0.00383      
97100   0.04368    0.00419    0.00798    0.00018      0.03086      0.00472      0.00029      0.03050      0.00380      
97200   0.04368    0.00419    0.00798    0.00019      0.03085      0.00475      0.00029      0.03049      0.00387      
97300   0.04367    0.00419    0.00798    0.00018      0.03084      0.00482      0.00028      0.03047      0.00392      
97400   0.04367    0.00419    0.00798    0.00018      0.03085      0.00474      0.00028      0.03047      0.00379      
97500   0.04366    0.00418    0.00798    0.00018      0.03085      0.00468      0.00029      0.03046      0.00383      
97600   0.04365    0.00418    0.00798    0.00018      0.03083      0.00475      0.00029      0.03048      0.00381      
97700   0.04365    0.00418    0.00797    0.00018      0.03084      0.00470      0.00028      0.03046      0.00380      
97800   0.04364    0.00418    0.00797    0.00018      0.03084      0.00472      0.00029      0.03047      0.00380      
97900   0.04364    0.00418    0.00797    0.00018      0.03084      0.00470      0.00029      0.03049      0.00384      
98000   0.04363    0.00417    0.00797    0.00018      0.03084      0.00467      0.00029      0.03048      0.00388      
98100   0.04362    0.00417    0.00797    0.00018      0.03083      0.00473      0.00029      0.03048      0.00382      
98200   0.04362    0.00417    0.00796    0.00018      0.03083      0.00471      0.00029      0.03046      0.00374      
98300   0.04361    0.00417    0.00796    0.00018      0.03083      0.00467      0.00029      0.03047      0.00384      
98400   0.04360    0.00417    0.00796    0.00018      0.03082      0.00473      0.00028      0.03047      0.00386      
98500   0.04360    0.00416    0.00796    0.00018      0.03082      0.00476      0.00029      0.03047      0.00386      
98600   0.04359    0.00416    0.00796    0.00018      0.03081      0.00473      0.00029      0.03046      0.00380      
98700   0.04358    0.00416    0.00796    0.00018      0.03081      0.00468      0.00028      0.03046      0.00382      
98800   0.04358    0.00416    0.00796    0.00018      0.03081      0.00471      0.00029      0.03044      0.00387      
98900   0.04357    0.00416    0.00795    0.00018      0.03080      0.00476      0.00028      0.03044      0.00385      
99000   0.04356    0.00416    0.00795    0.00018      0.03081      0.00464      0.00028      0.03045      0.00390      
99100   0.04356    0.00416    0.00795    0.00018      0.03080      0.00466      0.00029      0.03044      0.00387      
99200   0.04355    0.00416    0.00795    0.00019      0.03080      0.00470      0.00029      0.03046      0.00390      
99300   0.04355    0.00415    0.00795    0.00018      0.03079      0.00470      0.00029      0.03044      0.00391      
99400   0.04354    0.00415    0.00794    0.00018      0.03079      0.00471      0.00029      0.03044      0.00385      
99500   0.04353    0.00415    0.00794    0.00018      0.03079      0.00465      0.00029      0.03043      0.00378      
99600   0.04353    0.00415    0.00794    0.00019      0.03078      0.00470      0.00029      0.03041      0.00389      
99700   0.04352    0.00415    0.00794    0.00018      0.03078      0.00475      0.00029      0.03043      0.00391      
99800   0.04352    0.00414    0.00794    0.00018      0.03078      0.00473      0.00028      0.03041      0.00385      
99900   0.04351    0.00414    0.00794    0.00018      0.03078      0.00466      0.00029      0.03042      0.00389      
100000  0.04350    0.00414    0.00794    0.00018      0.03077      0.00468      0.00029      0.03040      0.00383      

---------------------------------------------------------------
Time used for training = 3063.856201 s.
---------------------------------------------------------------


---------------------------------------------------------------
Finished running nep.
---------------------------------------------------------------

