  5.5816684e-02   1.2398720e-03
  2.1813494e-04   3.1946455e-03
 -3.3869532e-01   1.7050085e-04
 -2.6164076e-03   1.3239947e-03
  1.1060254e-01   9.9926838e-04
 -8.2875211e-03   5.2109268e-03
  4.7484925e-03   3.9638327e-03
  4.3887626e-03   7.9002447e-04
  2.4074461e-02   2.0192182e-03
 -1.3255969e-02   3.0562165e-03
  3.6750250e-02   1.3772511e-03
  2.2705592e-01   1.4805075e-03
  1.8371157e-02   5.7137467e-04
  7.5264531e-03   5.7554006e-04
  3.0956012e-01   5.2562793e-04
 -5.7724174e-03   1.1649507e-03
  9.1277003e-02   1.4222143e-03
 -3.3009073e-03   5.6378995e-03
 -3.5897004e-03   1.1215160e-03
  1.0677649e-02   5.4797609e-03
  6.8891508e-04   1.3037812e-03
 -1.9001350e-03   2.0439508e-03
 -2.4752147e-03   5.1402207e-03
 -1.7772183e-03   1.5908767e-03
 -2.0989284e-03   1.5845636e-03
  1.2124782e-01   2.8485566e-04
  2.8225722e+00   6.3453399e-04
  5.3173723e-03   1.3586242e-03
 -1.6097557e-02   2.4060828e-03
 -2.3192098e-02   3.9610104e-03
 -1.2417707e-02   6.7715496e-06
  1.4761704e-01   8.8104571e-04
  1.3870959e-02   7.1696777e-05
 -1.3244931e-01   6.3724630e-04
 -1.0568477e+00   1.6796320e-04
  2.3416964e-02   6.8361289e-04
 -4.0958859e-02   2.3932620e-03
 -9.8546071e-04   1.8809211e-03
 -1.3627903e-01   1.8909819e-02
 -1.2648629e-01   1.2518400e-04
  3.2788288e-02   5.8125949e-04
  1.8801300e-02   3.7286905e-04
  9.5988937e-02   6.3723599e-04
 -2.5307873e-01   1.0314966e-04
  9.2085294e-02   1.4236809e-03
  1.6107470e-01   1.5789748e-04
 -7.3900059e-02   2.8725835e-03
 -7.7993102e-02   4.9679256e-03
  1.7312082e-02   8.3002914e-04
 -1.6314146e-03   3.7088590e-03
 -1.9330470e-02   6.2612782e-04
 -2.6906014e-03   3.0084946e-03
 -6.5365001e-03   8.3214353e-04
  2.4214454e-01   1.0975293e-03
 -2.2928642e-02   3.7270358e-03
 -3.0123952e-05   5.7238474e-04
  8.7367408e-03   3.4931125e-03
  8.2604438e-03   3.8842785e-03
  2.7747395e-02   1.4645805e-03
 -3.8031146e-02   1.1646731e-03
  2.9612023e-03   2.7381578e-03
  4.6415008e-03   1.1395797e-03
  7.3545605e-01   3.2077465e-04
  6.1837854e-03   8.9919200e-04
  5.5720959e-02   1.4324965e-03
  8.9795925e-03   1.3444048e-03
 -7.6358728e-03   1.3147180e-03
 -8.8801570e-03   1.1797941e-03
  4.1205706e-03   4.6472070e-03
  8.4471991e-03   5.6800037e-03
  8.0288097e-02   2.1574632e-03
 -4.5858864e-03   3.3114241e-03
 -1.4589414e-03   6.6587785e-03
 -5.1426653e-02   2.0311831e-03
 -6.9324290e-03   1.2716748e-03
 -2.6110613e-01   2.5286048e-03
 -6.4431185e-01   1.9940262e-04
 -9.5899366e-03   1.6113272e-04
  3.5572003e-03   2.8814094e-03
  8.9137293e-03   5.5232276e-03
  8.4943352e-03   1.6547174e-03
 -8.7159313e-03   3.8057978e-03
  1.1873421e-03   1.1304709e-03
 -1.8205442e-03   4.3592714e-03
  8.1465151e-03   2.6211094e-03
  5.7269833e-03   2.9483300e-03
  2.6569413e-02   4.2034821e-03
 -2.4689758e-02   4.8438399e-03
 -1.4115553e-01   5.1815715e-03
 -4.9084290e-03   1.2390144e-03
  6.3551620e-02   2.7050267e-04
 -2.2203124e-01   1.1090047e-03
 -7.3569268e-01   3.8094528e-05
  3.6470240e-01   8.8426250e-04
  9.6577518e-02   1.9588452e-04
  9.6339015e-03   1.2286039e-03
 -3.7335556e-03   3.8366562e-03
 -3.0756006e-03   8.7266415e-03
  4.1207783e-02   5.3261328e-03
  1.4220330e-02   1.9955488e-03
  1.2225840e+00   1.7874941e-03
 -2.2893071e-02   1.0334608e-03
 -2.7231939e-02   9.5082197e-04
  1.2122363e-01   1.6696411e-03
  1.3423279e-01   4.4060103e-03
 -1.9714752e-01   7.6481136e-03
  3.1864196e-02   4.6075294e-03
 -1.0264467e-02   3.5207067e-03
  7.0231180e-03   1.2380634e-03
 -1.2782192e-02   7.3357986e-04
  6.5050489e-01   1.5174787e-04
  5.2929007e-02   8.3544096e-03
 -3.6037222e-01   8.1041940e-03
  1.5113045e-02   1.8135495e-03
 -3.0439632e+00   9.7687321e-04
  2.4952678e-01   6.7825965e-04
 -2.0047638e-03   7.7894528e-04
  5.0149430e-03   4.5232228e-03
 -1.1013005e-02   6.7151297e-04
 -3.9951596e-03   3.7731081e-03
  2.2859657e-02   2.4702658e-03
  1.0008647e-02   6.0117943e-03
 -8.6898136e-01   7.9267909e-04
  1.5150168e-02   1.0138392e-03
 -7.9072844e-03   7.9159049e-04
 -9.0252068e-03   3.9877021e-03
 -1.8638505e-02   1.3136098e-03
  1.3206220e-03   3.5219893e-03
  1.5700046e-02   9.7998278e-04
  4.6923649e-04   3.4033472e-03
  5.9481589e-03   3.2438273e-03
  1.0007522e-02   3.0258242e-03
  7.0890449e-03   2.2405041e-03
  1.0113432e-01   2.1687063e-04
 -4.1204225e-03   2.5824946e-03
 -6.7820132e-02   1.8165323e-03
  5.7458200e-02   2.1610570e-03
 -4.1842749e-03   1.6367874e-03
 -6.3988874e-03   7.9027098e-03
 -2.3693528e-02   2.9875296e-03
  9.9254632e-03   5.4891817e-03
 -8.8723004e-03   1.8045484e-03
  3.4650601e-02   3.7068746e-03
  1.2932914e-02   6.2162424e-03
  5.5047637e-03   2.4941429e-03
 -4.3755313e-04   1.3112901e-03
  8.9504318e-03   3.7682746e-03
 -2.5333902e-03   6.3605828e-04
  8.4965276e-03   4.6529067e-03
 -8.9342566e-03   2.3770595e-03
 -1.9121894e-01   1.1415902e-04
  1.5676394e-02   3.7266908e-04
 -5.2359110e-01   6.9402886e-05
 -3.4024778e-01   9.7776728e-04
  2.6114896e-01   7.4384880e-04
  1.8323999e-02   1.7496906e-03
 -9.5094116e-03   3.5561540e-03
  4.9721105e-03   3.4009165e-03
 -7.4566908e-02   4.0983143e-03
 -1.4441470e-03   1.9958618e-03
 -2.4904744e-04   4.6533346e-04
  1.0823144e-03   1.2055740e-03
  7.8880638e-03   1.9403686e-03
 -7.3984526e-03   7.7656680e-04
 -1.9569399e-02   2.9820669e-04
  1.0200615e-01   1.1665787e-03
  2.4927135e-03   2.3791326e-04
 -9.2207387e-02   2.7675696e-03
  2.3759074e-04   2.0319521e-03
 -4.1514963e-05   4.1912673e-03
 -7.6261945e-02   7.8757893e-04
  5.1698829e-03   1.5145898e-03
 -2.3594324e-02   1.9709246e-04
  2.0762881e-02   1.0544673e-03
  2.5225279e-03   1.5107703e-03
 -5.5085937e-03   7.1121799e-04
 -1.8374251e-02   1.8782974e-03
  1.2535646e-02   2.6980732e-03
 -3.4112036e-02   5.1924231e-04
  5.6183380e-03   2.6933202e-03
 -1.1956232e-01   1.2091792e-04
 -1.6625962e-01   6.9361128e-04
  6.9295746e-01   4.1649717e-05
  6.2551931e-02   2.1735174e-04
 -1.2477597e-01   9.2597715e-05
 -1.1680201e-01   4.2379806e-03
  1.5259198e+00   2.9621518e-04
 -1.5941160e-02   1.7909489e-04
  6.9879246e-01   1.0894821e-02
  1.6885477e-01   6.3240151e-03
 -2.3203902e-01   1.0530061e-04
 -3.1199383e-03   7.1527809e-04
 -3.2121032e-02   7.5806858e-04
  1.3312623e-01   2.5426233e-04
  2.9335257e-01   4.0362737e-04
 -2.2288828e-01   2.0395998e-04
  5.4984915e-01   4.9982523e-04
 -4.5531737e-03   1.5766536e-03
  4.9704276e-02   3.4101395e-04
 -1.2769359e-02   4.4843936e-03
  1.2111179e-01   6.3810608e-04
  2.2188287e-02   4.4731065e-04
 -3.1106904e-01   1.7409413e-03
  3.2468703e-01   3.2149351e-04
  5.8957201e-01   5.2305111e-03
 -2.1688993e-01   1.9043514e-04
  2.0272778e-02   5.0187395e-03
  4.4244647e-02   1.2797144e-03
  4.9320188e-01   5.5542204e-04
 -6.0666133e-02   1.7624632e-03
 -9.1464818e-02   2.5072871e-04
 -4.0458119e-01   4.7146904e-04
 -1.9412652e-01   7.4313924e-05
 -1.2567581e-02   2.1216844e-04
 -4.0620974e-01   7.9535748e-05
 -1.4577235e-02   1.9366791e-03
  1.9789740e-02   4.6890415e-03
 -1.6539138e-02   6.5661175e-03
 -3.6934274e-01   6.1815802e-04
  1.1142593e-02   1.0340629e-03
  9.0634272e-02   2.0751718e-04
  2.0889978e-01   1.9083297e-03
 -1.4233879e-02   1.1991283e-03
 -1.6316421e-01   5.2943639e-04
 -5.7659452e-03   1.7950494e-03
 -5.7541348e-02   1.5878109e-03
  2.8310220e-03   1.5606906e-03
 -1.8062979e-02   2.3701210e-03
 -2.8344901e+00   3.1813986e-03
 -1.7350696e-02   7.3902803e-03
  7.5007692e-02   1.1112733e-03
  4.2430442e-02   7.9180783e-04
 -8.9834463e-03   1.7555619e-03
 -3.7291618e-03   6.5388356e-04
  8.0621392e-02   8.9301955e-04
  6.0787326e-01   6.3066022e-04
  1.6359512e-02   4.5302431e-03
  4.4824421e-02   1.8648831e-03
 -3.0615582e+00   5.5207592e-04
 -4.0838839e-03   5.6797185e-04
  3.0194346e-02   9.6478016e-04
 -4.8002936e-02   5.0045142e-04
  1.6749533e-01   1.5021730e-04
  8.0700992e-03   2.3976292e-03
  2.7611246e-02   8.7711524e-04
 -1.0907993e-02   7.0309583e-03
 -1.2280495e-03   1.4956496e-03
  3.1451283e-03   3.5556334e-03
  1.1154965e-02   1.4575353e-03
 -1.3782147e-02   7.2206566e-03
 -3.2317165e-01   9.1808918e-04
  7.2437371e-03   2.5740237e-04
  1.0969110e+00   4.0814813e-04
 -1.3853842e-02   6.7960913e-04
  4.7865976e-04   9.9844160e-04
 -2.2253383e-02   1.9747114e-03
  3.8799227e-03   5.6807157e-03
  2.2096353e-02   6.5411082e-03
  1.0861054e-02   1.0100974e-03
  7.9140281e-03   1.9320071e-03
 -6.7211892e-03   3.3100829e-03
  3.9159996e-03   4.6759690e-03
 -8.2073025e-03   3.2429704e-03
  1.7017405e-02   1.3709306e-03
  1.9681804e-01   1.5807544e-03
 -1.4226458e-02   1.1139014e-03
 -7.6581961e-01   5.4007064e-04
  1.1923410e-02   6.1277120e-04
 -1.1612968e-02   3.9155381e-03
  1.2647210e-03   2.6370371e-03
  7.6794729e-02   2.3705274e-05
 -3.4674153e-01   6.6307557e-06
 -5.5411476e-01   1.3048829e-05
 -1.9391619e-02   1.1654319e-04
  1.3977317e+00   1.3327698e-04
 -6.3623232e-01   1.6925177e-03
  9.9237740e-01   7.0142383e-03
 -1.2572038e-01   1.3013597e-03
  1.7634349e+00   5.5609359e-03
  9.5146137e-01   8.0676405e-03
  4.9479637e-01   5.6578661e-05
 -1.1493893e+00   5.2485731e-04
  2.6328591e-01   2.1701459e-04
 -2.2179456e-01   1.7160307e-04
  9.6577537e-01   3.5905692e-04
 -3.6134231e-01   3.9050478e-04
  3.4795842e+00   6.0532743e-04
  2.2108481e+00   3.0148780e-04
  1.2193793e+00   2.2349667e-04
 -4.2456615e-01   1.0169244e-02
 -1.6175053e+00   2.0626941e-04
  9.1181552e-01   3.2494272e-04
  3.0650774e-01   4.2715319e-06
 -1.3439195e+00   1.2040537e-04
  1.3898100e+00   1.7497902e-04
 -4.5493126e-01   1.8488264e-04
 -1.9527915e-03   1.2399197e-03
  6.6006415e-02   1.1041970e-03
  2.4093598e-01   1.1301984e-04
 -1.1282655e-01   1.1878801e-03
 -8.7092064e-02   1.6082592e-04
 -1.0516156e+00   3.4928916e-04
 -7.5483960e-01   1.0366371e-05
  7.8717723e-02   2.5885610e-04
  7.4234581e-01   2.1071170e-04
  1.5784750e-02   1.6626921e-03
 -5.5075274e-03   5.7750326e-03
 -6.2488794e-04   2.2329078e-03
 -3.6918563e-03   4.0519284e-03
 -2.5569289e-03   1.0004722e-03
 -2.7972832e-01   1.1169718e-04
 -1.7195855e-03   1.9122419e-03
  9.2586339e-02   3.1339491e-04
 -9.1961819e-01   7.6209843e-05
 -5.9949434e-01   1.9438282e-03
  1.2272428e+00   3.0572253e-04
  1.2365454e+00   2.5980629e-04
  1.8998326e-01   5.1538451e-03
  2.4571497e-02   7.8702171e-04
  9.1669327e-03   6.6917082e-03
 -4.3195330e-02   2.6336269e-04
 -5.1539806e-03   8.1725465e-04
  1.6613077e-01   2.9629548e-03
 -4.4747466e-01   1.0396148e-04
 -1.4267794e-02   3.6153477e-03
  4.4415569e-01   5.8153388e-04
  1.8478264e-04   1.4882418e-03
 -6.5210515e-01   4.1765812e-05
  3.9796982e-02   6.4495340e-04
  3.1754270e-02   1.3835053e-03
  2.7892026e-01   2.4408588e-05
  8.1293106e-01   1.0289493e-04
  4.7178665e-01   1.8629929e-05
  3.3843480e-02   1.8918534e-05
 -1.4577123e+00   2.1455337e-05
 -3.6786525e+00   1.5119496e-03
  8.4673357e-01   1.0278437e-03
 -1.9794161e+00   6.8662153e-04
  2.0437908e+00   2.1035741e-03
  1.0168617e+00   2.7603062e-03
 -2.1157417e-02   9.6085125e-05
  1.6737616e+00   4.0560102e-05
 -2.5612155e-01   1.4271787e-05
 -2.3252389e-01   1.0859225e-04
 -8.8065755e-01   4.0043436e-04
 -1.1566226e+00   1.1770582e-04
  1.0965503e+00   6.3216989e-04
  9.8246545e-01   5.5282674e-04
  1.6347814e-02   4.5065396e-04
 -8.0883157e-01   2.4238110e-03
 -2.2604218e-01   1.4749623e-04
  1.6025516e+00   6.1739571e-05
  4.7678614e+00   2.8801896e-04
 -8.2824481e-01   4.5180303e-05
 -2.7131230e-01   3.9439910e-04
  2.2756708e-01   7.4812633e-05
  3.2707952e-02   2.3012829e-03
  5.6135412e-02   1.2722850e-04
 -9.7827263e-02   2.2642961e-04
 -8.7812382e-01   1.8482876e-04
  7.3489085e-02   2.3241788e-03
 -2.5111143e-02   5.3062942e-03
  1.2110134e+00   1.8223287e-03
 -1.4869955e-02   1.1853599e-04
 -6.5934830e-03   1.8194480e-03
 -3.6536422e-02   1.6941826e-03
 -3.2563847e-03   3.7806176e-03
 -2.6492227e-02   2.4921366e-04
 -8.4705830e-01   1.2066668e-03
  2.7418020e-03   2.6950738e-03
 -6.9104746e-04   2.7262219e-03
  3.6513321e-03   4.6585612e-03
  1.4059670e-02   1.5487762e-03
 -2.7431801e-03   5.3582015e-03
 -1.1646061e-02   4.1001085e-03
  2.4300119e-02   2.4819695e-03
 -3.8590087e-03   2.0786244e-03
  1.2621373e-02   1.7872347e-03
  2.5101968e-03   9.4431354e-04
 -7.5594340e-03   6.7187392e-04
 -1.0011906e-02   4.0461312e-04
  6.5356228e-03   1.7567259e-03
 -2.1199207e-03   1.0113656e-03
  3.6365602e-02   1.8733063e-03
  5.4230401e-04   5.1074373e-03
 -1.2374837e-02   1.3888988e-03
 -3.0436656e-02   3.1736651e-03
  2.3981892e-03   2.3629970e-03
  2.8836133e-03   3.4731785e-03
  1.1208183e-03   3.2897741e-03
 -2.5859241e+00   2.3148341e-04
 -6.6599436e-02   1.0997443e-03
  9.5835268e-01   1.0540592e-04
 -1.7685759e-01   5.4295361e-04
 -1.7253554e+00   1.8202756e-04
  2.9342794e-03   1.3142101e-03
  1.0243423e-02   9.5764711e-04
 -1.1064084e-02   3.5845707e-03
  1.7567433e-02   5.7727946e-03
  1.5491977e-02   4.6242662e-03
 -6.4427420e-02   7.8901934e-04
 -5.4397684e-01   1.8866099e-03
 -4.9649002e-03   8.7150768e-04
  2.4302197e-01   1.4586432e-04
 -9.9051714e-02   1.8895032e-03
  1.4884579e+00   1.5342786e-03
  3.8568225e-02   3.6779549e-03
  1.8749148e-01   1.0317562e-04
  3.9881077e-02   3.5844123e-04
 -5.9648543e-03   3.8962997e-04
  4.0653128e-02   7.3608669e-04
  2.4584299e-03   2.4382984e-03
  2.0719458e-01   2.5989227e-03
 -3.8186710e-02   5.6308327e-04
  2.0018057e-03   1.1958540e-03
 -1.4689234e-01   1.7579683e-03
 -3.9507724e-02   5.1707341e-03
 -3.7786659e-04   1.1841635e-03
  1.0381746e-01   1.5893887e-03
 -3.2855019e-02   4.2056720e-04
  5.7827246e-01   8.0931677e-05
  6.3417459e-01   6.7091861e-04
 -1.0596201e+00   2.4779460e-05
 -3.4034294e-01   1.6582393e-04
  2.4833682e+00   1.5731358e-04
 -2.6033661e-01   2.3739436e-03
  5.7440806e-02   6.6259044e-04
  7.0348561e-01   1.2567898e-03
  3.3182669e-01   6.8250699e-03
  1.0362038e-02   3.5115140e-03
 -3.4004989e-01   2.5820214e-04
 -5.1267876e-04   7.1866793e-04
  1.1678034e-02   3.1086055e-04
 -2.9838082e-01   3.8552808e-04
  1.1859041e-01   3.2154581e-04
 -1.0038285e+00   2.7546296e-03
  5.7284307e-01   1.2954958e-03
  1.6252083e-01   3.9839372e-04
  2.1296187e-01   5.9447007e-04
 -5.0374311e-03   2.9491729e-03
  1.8319476e-02   5.5194419e-04
  1.9346473e-01   3.7774138e-04
 -2.5517112e-01   5.4669532e-04
  1.6659205e-01   7.0431357e-04
  1.8891953e-01   1.3378200e-03
  9.0169661e-02   1.4896836e-04
 -1.0131918e-02   3.3193459e-03
 -4.9376385e-03   1.5866965e-03
  2.8320339e-01   8.8700508e-05
 -3.0334340e-03   3.2079685e-04
  2.2430089e+00   9.8878641e-05
 -4.8827139e-01   1.8200932e-04
 -1.0018628e+00   3.2077576e-05
 -1.0248733e+00   2.1052697e-04
 -2.9303408e-01   1.8998802e-04
 -2.3249470e-01   1.0251633e-02
  8.7938748e-02   4.5544971e-03
 -1.1518364e-02   2.0225993e-03
  4.1893786e-01   1.3812875e-03
  2.4869155e-02   5.6252759e-03
 -4.3023345e-01   5.7745946e-04
  7.3151961e-03   2.3113545e-04
 -8.1736773e-02   1.7622062e-04
 -2.1521045e-02   4.4725501e-04
  1.4713965e-02   4.9217709e-04
 -6.1250299e-01   2.4398710e-03
 -1.1515999e-02   2.2594354e-03
  5.5863380e-02   4.4700800e-04
 -4.0943418e+00   9.0105357e-05
 -2.8983416e-02   2.7230824e-03
  3.9535433e-01   4.6221240e-04
 -6.7869745e-02   1.0956479e-03
 -1.8403277e-01   8.9649128e-04
 -6.1456808e-03   5.8590266e-04
  6.2588893e-02   3.7793922e-03
 -4.1062805e-01   2.8589671e-04
 -6.5453448e-03   2.1136107e-03
  3.4516972e-02   2.1270155e-03
  6.1718289e-02   4.0079746e-04
 -1.7221271e-01   3.9170118e-04
  1.9133349e-01   7.0941067e-05
 -9.3957648e-02   3.4257446e-03
 -1.0591289e+00   7.8091027e-05
 -1.7680821e-01   4.8924773e-04
  1.1235750e+00   4.4271411e-04
  1.1016799e-02   8.6305215e-04
 -2.5579821e-02   2.0776931e-03
  2.1074367e+00   9.6904318e-04
 -3.7508529e-02   3.7107479e-03
 -5.4942352e-01   5.5599719e-04
  2.7327970e-02   2.7314725e-03
  1.5020579e-02   2.1488913e-03
  2.0303950e-01   1.0605112e-03
  6.9344467e-01   8.5253862e-04
  2.5596455e-02   6.2023569e-04
  2.3184434e-02   3.5360609e-03
 -2.8255558e-01   2.4134482e-03
  1.1445781e-02   3.6827226e-03
  3.4889651e-03   1.3749496e-03
  9.4656074e-01   3.6694121e-04
 -8.8440232e-02   8.7918132e-04
 -7.8059003e-02   3.8247504e-03
  1.3040173e-01   2.9530639e-03
 -1.7077732e-01   1.2363862e-03
  6.4388812e-03   1.7294568e-03
 -1.0824332e-02   9.3762175e-04
 -1.4771808e-02   4.8911893e-03
  7.5876671e-03   1.2946950e-03
 -1.4278026e-01   1.4694969e-03
  2.9438434e-02   2.8960465e-03
 -7.9743518e-03   3.8687489e-03
  2.0911926e-02   4.6058893e-04
 -1.0111994e-02   7.3962734e-04
  8.5724918e-03   1.3709369e-03
  8.8530332e-03   2.2567147e-03
  1.7210566e-03   5.7755513e-03
 -7.1381130e-03   3.3585685e-03
 -6.1112610e-03   5.0494815e-03
 -1.2171215e+00   1.6210757e-03
 -2.1807423e-03   1.6732600e-03
 -1.2764274e-02   1.3468792e-03
 -2.7543046e-03   3.8262284e-03
 -7.9281935e-03   5.0070230e-03
  1.1717683e-02   5.2779890e-03
 -4.4821220e-04   8.5607352e-04
  6.2833265e-03   2.1996282e-03
  5.0327755e-03   6.5248329e-03
 -1.8837893e-02   4.0560407e-03
  1.5466966e-04   4.6024653e-03
 -5.3862222e-03   2.2376054e-03
 -1.5132450e-02   2.9816339e-03
  2.2763239e-02   7.3458225e-04
  1.6380129e-02   2.2578724e-03
  3.9545051e-04   2.8690987e-03
  2.6253974e-02   1.5167093e-04
 -2.4653433e-03   1.8934585e-03
  1.4358864e-02   1.2574818e-03
  6.4041734e-02   1.0077749e-02
 -1.7820544e-03   2.6554763e-03
 -4.9441108e-03   5.4421107e-04
  9.1602750e-02   8.6041095e-05
  1.1314431e-01   5.5944147e-05
  7.8096533e-01   9.1730835e-06
  8.2625008e-01   1.2371209e-05
 -1.6476040e-01   2.1551101e-04
 -1.0991536e-02   1.4393836e-03
  1.1818676e-03   2.9291546e-03
 -1.0338817e-01   4.4674589e-03
  1.5010335e-02   4.6912343e-03
  2.9969709e-02   2.2582626e-03
 -1.0934761e+00   6.5708606e-05
  3.2812525e-02   1.7833574e-03
  8.3943027e-01   5.2776293e-05
 -2.0012660e-01   1.4836972e-03
  2.5146684e-01   2.2777619e-03
 -1.4024322e-01   1.9789324e-04
  3.9022496e-01   3.3530366e-04
  1.2816592e+00   7.5545441e-04
 -2.3873780e-02   7.4645824e-04
 -2.0810634e-02   4.3069748e-03
  1.4932479e+00   8.6725183e-04
 -5.3136528e-02   4.2760291e-04
 -2.2380063e-02   8.6423202e-04
 -2.6171049e-01   1.0363529e-04
  1.0568924e-02   3.5892166e-03
 -1.2628661e+00   1.6649155e-04
  2.1419729e-01   4.0537873e-03
  1.2521374e-01   4.7863479e-04
 -4.7164592e-03   1.7610531e-03
  4.4772870e-04   1.6164951e-03
 -1.5231772e-01   9.4533061e-05
 -1.1689856e-01   4.3032455e-04
  6.2506455e-01   1.2174976e-04
 -1.0746248e+00   5.8069720e-04
 -1.4607523e-01   1.2015770e-04
 -4.4203216e-01   6.0321810e-03
  1.2960993e-01   4.4626128e-03
 -1.0710520e-02   2.3455198e-03
  4.6686195e-03   1.9023307e-03
  5.2744150e-02   5.4062731e-03
  4.1540209e-03   9.2234951e-04
 -6.6118599e-03   2.5484050e-03
  1.2431874e-01   5.5836665e-04
 -5.8081377e-01   5.1685213e-04
 -9.0330124e-01   1.8075404e-04
 -1.1831604e-01   2.1268144e-04
  8.8593167e-01   1.2803631e-04
  4.0786868e-01   1.1945391e-03
  3.5798433e-03   1.0137103e-03
 -1.2495110e-02   2.2440969e-03
  2.9491070e-01   1.0020282e-03
  9.3446989e-03   1.4091450e-03
  1.1843992e-01   8.7007415e-04
  3.1641245e-01   2.1106473e-04
  2.4204159e-01   3.9171930e-03
  5.2452022e-01   4.7474314e-05
  2.7609544e-03   4.7131064e-03
  3.1023383e-01   7.0621516e-04
  1.2625237e-01   6.8844296e-04
 -4.6473383e-03   6.8604527e-04
 -1.1348969e-03   1.6264016e-03
 -2.1391320e-03   3.6720810e-03
 -9.6569955e-01   8.8955479e-04
 -2.1898728e-02   8.5458154e-04
 -1.4299108e-03   8.8946824e-04
 -3.5874438e-03   3.2078917e-03
  1.7654496e-01   2.8807644e-04
 -2.5899330e-02   8.8664825e-04
  3.9771795e-01   4.8691552e-04
  4.9695428e-03   3.7171193e-03
 -1.0529468e-02   1.7799028e-03
  3.4143217e-03   4.0562479e-03
  4.3542855e-03   2.7396856e-03
  4.4012363e-03   1.3452698e-03
 -1.1412483e-03   3.6656237e-03
  4.9933943e-04   2.8960356e-03
  8.4921028e-03   2.2644221e-03
  1.2909746e-02   1.9794484e-03
 -1.8256426e+00   3.0253087e-03
  2.4257760e-02   3.8219348e-03
  3.1814955e-02   3.6814006e-03
 -3.2408221e-03   3.6764450e-03
 -2.5907094e-02   2.5962112e-03
 -1.7530860e-03   4.2762938e-03
  6.3438928e-03   1.1045265e-03
  1.8467639e-02   1.4320406e-03
 -1.1745078e-02   2.6213645e-03
  1.1497566e+00   7.7694177e-04
 -4.9078431e-02   4.7879264e-04
  2.2741094e-02   2.6142036e-03
 -3.0004203e-01   2.7838431e-03
 -2.0362216e-03   4.7865496e-03
 -5.3529286e-01   1.0234058e-04
  1.4981863e-02   4.2623081e-03
 -1.1240697e-02   7.0072594e-04
  5.9298682e-03   1.9243597e-03
 -1.6141121e-01   1.1278683e-03
 -2.7075664e-03   7.3725416e-04
 -1.2357166e-02   1.5668868e-03
  9.7890673e-03   3.2560600e-03
 -6.0156402e-03   4.4207931e-03
 -1.6364701e-02   7.1136450e-04
  1.2136784e-02   2.5770441e-03
 -4.1930391e-03   7.0024480e-04
  3.6101034e-03   3.5907314e-03
 -1.5593778e-03   6.6015369e-04
 -2.7158050e-04   3.7387046e-03
 -3.4195278e-03   1.1539874e-03
 -2.8348038e-02   5.3512673e-03
 -7.3149428e-02   1.9344318e-04
  1.7559922e-03   8.2847988e-03
 -1.2587926e-02   3.2017629e-03
 -1.1830991e-02   2.2527697e-03
 -2.0304560e-03   3.4803478e-03
 -1.2286204e-02   5.7627104e-04
  2.0750298e-03   1.7436302e-03
 -1.0716497e-02   4.0271464e-03
 -1.2958877e-03   6.8084374e-03
 -9.0675997e-03   1.7106836e-03
 -1.5325966e-02   4.0465025e-03
 -2.7523282e+00   4.1756697e-04
  1.4170153e-03   2.0838245e-03
 -4.7184236e-04   1.4132335e-03
  5.5112662e-03   5.7322844e-03
 -1.7453721e-02   3.0834833e-03
  1.2615308e-02   7.9510817e-03
  1.1117321e-02   2.5747707e-03
 -4.2312284e-04   5.4900791e-03
 -2.4641794e-03   1.5445844e-03
 -1.5400002e-02   4.6893768e-03
  3.9863288e-02   8.5051695e-04
 -9.1240042e-01   3.2143228e-04
  1.3962909e-02   1.2030597e-03
 -1.1745502e-02   1.1004552e-03
 -2.6930822e-04   2.4357291e-03
 -4.9295253e-03   3.9133821e-03
 -4.1345277e-04   7.4094679e-04
 -1.0043911e+00   2.9652598e-03
  8.1065670e-03   1.2938270e-03
 -9.4075187e-04   1.2705707e-03
  7.9914246e-04   2.2862460e-03
  3.9217342e-03   4.0276339e-03
 -2.5135772e-02   2.5846160e-04
  1.6780894e-02   2.8112559e-03
 -8.1120832e-03   4.9723918e-03
 -1.2105547e-02   2.7800542e-03
  8.1864642e-03   4.3475539e-03
 -9.6311122e-03   1.6235079e-03
  6.7143613e-03   2.4026656e-03
 -1.3795265e+00   1.6675269e-03
  2.6687741e-02   2.5254991e-03
 -5.0013070e-03   5.1853829e-04
  5.9379435e-01   7.5836520e-04
  2.1889014e-02   2.6047328e-03
  5.0358909e-01   1.7701542e-03
  4.2180214e-05   8.4518711e-04
  3.5095704e-01   4.5168877e-04
 -1.0060180e-02   4.4672326e-03
  1.6873589e-02   9.5939562e-03
 -2.3968775e-02   1.7137092e-03
  6.9437162e-03   2.6285779e-03
  3.8589439e-03   3.1149741e-03
 -9.3534803e-03   1.0601004e-03
 -1.8593917e-02   3.1593167e-03
 -5.4191384e-03   4.1725631e-03
  5.6268796e-03   2.1928067e-03
 -6.5499619e-03   4.3902532e-03
 -5.3479057e-03   2.6794216e-03
 -1.2169839e-02   4.0634745e-03
  3.6099155e-03   4.3935054e-03
 -3.8948953e-01   2.0395168e-03
  4.5960010e-03   3.8281681e-03
  6.7271143e-03   1.0706539e-03
 -1.4818978e-02   2.1270094e-03
  8.3604977e-03   2.4871577e-03
  5.6639989e-03   8.0474030e-04
  3.6704226e-03   7.5841108e-03
  7.1855048e-03   4.7681336e-03
 -1.4436620e-02   2.5287990e-03
 -4.3616891e-03   2.9386224e-03
  1.0974938e-01   4.9556320e-04
 -2.9939002e-01   1.2056780e-03
 -6.2708932e-01   3.3620163e-04
 -8.2949903e-03   3.4636389e-05
 -2.5604559e-02   6.1255338e-04
  1.5726443e-02   4.1227085e-03
 -6.1418233e-04   4.2908564e-03
 -1.3687230e-02   1.8621339e-03
 -1.9008992e-02   4.0339730e-03
 -2.2587406e-02   8.6290274e-05
 -6.4038388e-02   1.2442473e-03
  3.6027005e-03   3.8143960e-03
 -3.0698669e-03   5.5427843e-04
 -3.3949159e-02   9.2276436e-04
 -5.6375139e-03   2.9499633e-03
  6.6755931e-03   2.2983518e-03
  3.0980099e-03   1.9835089e-03
 -3.4461808e-04   1.1922066e-03
  1.1667545e-03   1.1628240e-03
 -4.4121165e-03   2.5258614e-03
 -3.6171961e-03   1.4919168e-03
  1.0207330e+00   3.6958404e-04
  2.2665940e-02   8.9262665e-04
 -5.5566750e-02   1.8056029e-03
  2.1630237e-03   1.8164084e-03
  5.2681873e-03   1.4864326e-03
 -3.5726568e-03   1.9840747e-03
 -1.2780419e-02   4.0585385e-04
  5.5196043e-03   2.5392706e-03
 -6.0093451e-01   4.5556843e-04
 -8.1851792e-01   1.8664372e-04
  3.6694402e-01   8.7235414e-04
 -3.9457113e-01   3.6786096e-05
  3.3777159e-01   9.6083200e-04
  3.6883581e-01   7.3630792e-05
 -3.3994821e-01   5.2146004e-03
  1.1068569e-02   5.5013155e-03
 -1.4393656e-01   7.3500322e-03
  6.6636376e-02   3.0058399e-03
  4.6753980e-02   8.1883911e-03
  3.5666361e-01   9.8999718e-04
 -5.4586969e-02   3.5009079e-03
 -1.3140514e-01   1.5289185e-03
 -2.8832275e-01   5.0601957e-04
  6.2953883e-01   3.6654039e-04
 -1.4728755e-01   4.9732160e-03
  4.1805324e-03   1.0349622e-03
  5.6396540e-02   1.3677444e-03
 -1.0738296e-01   2.7118106e-03
 -8.6912848e-03   1.1838831e-02
 -2.4239933e-02   1.8029558e-04
  4.5320494e-03   1.4759625e-03
 -8.6644053e-02   7.9307827e-04
 -1.8320660e-01   1.5477849e-03
  2.8392985e-01   1.0786582e-03
  7.2895682e-01   1.5649814e-03
  6.9839470e-02   7.8444619e-04
  1.9643651e-02   2.6347493e-03
  1.2801376e-01   4.4009279e-04
  8.5016841e-04   5.8628246e-03
 -6.4599824e-01   2.9670357e-04
 -6.3057846e-01   7.9799053e-04
  4.7314513e-01   1.0234691e-05
  8.3111385e-03   4.0169114e-05
  1.2086772e+00   3.0716602e-04
 -1.6512438e-03   8.3913596e-04
  1.7081892e-01   1.0972716e-03
  5.2310815e-03   2.7737480e-03
  5.2822355e-02   6.4089219e-03
 -6.5608609e-01   3.9362066e-04
  3.4457445e-02   3.4435894e-04
  4.4543277e-02   5.5935187e-04
  8.8032800e-01   1.1351658e-03
  6.9966033e-02   3.8228169e-04
  7.7920862e-02   4.6308548e-04
 -4.7839992e-03   2.0829872e-03
 -4.5718879e-02   1.4176818e-03
  9.3966179e-02   1.4801016e-03
  1.2256526e-02   2.4603028e-03
 -1.3079716e-02   1.2129198e-03
  1.3009940e-03   5.6116091e-04
 -3.8976096e-02   6.0991332e-04
  7.0956808e-01   1.4377818e-03
  2.3722513e-01   3.9095650e-04
  1.6329529e-03   1.2822787e-03
 -5.4281263e-04   1.1929376e-03
 -5.6102592e-03   2.1976505e-03
 -6.1010987e-01   4.5300284e-03
  5.9694833e-01   5.9934775e-04
  1.8884514e-02   2.4534215e-03
 -2.3133799e-03   1.0659357e-03
 -4.3379568e-02   6.1242469e-04
 -6.5811968e-01   3.0690740e-04
  1.0092627e-02   2.4665175e-03
 -2.7294476e-03   1.2510145e-04
  5.3506833e-01   2.0353874e-04
  1.5748678e-02   2.9123126e-04
 -1.4025792e-02   3.7772858e-03
 -1.0635726e-02   2.1896984e-03
  3.5929717e-03   1.8676341e-03
  2.7052595e-03   3.7650494e-03
 -1.1339572e-02   1.3287081e-03
 -4.5569753e-04   1.5484095e-03
  2.0946758e-02   1.2152313e-03
 -4.9070492e-03   2.5977260e-03
 -1.1727549e-02   4.8064222e-03
 -3.0239640e-02   1.9457497e-03
  6.0688397e-03   3.5623226e-03
  9.2731491e-03   8.5216863e-03
  9.0232855e-03   3.1912818e-03
 -1.0962608e-02   5.1738066e-03
 -9.7932573e-03   1.3883662e-03
  3.0802760e-06   2.2979293e-03
  1.0743372e-02   1.2308657e-03
  5.7943948e-03   2.4732514e-03
  2.7989920e-02   2.3247045e-03
 -9.5031466e-03   7.8290293e-04
  3.7526784e-03   1.8122493e-03
  1.1484507e-02   3.7299350e-03
 -6.4998900e-04   6.0982085e-03
 -9.6295513e-02   4.1595663e-04
 -7.8609344e-05   3.1064311e-03
 -5.8177263e-01   3.5132360e-04
 -2.8523952e-02   2.2645504e-03
 -1.6338405e-01   1.1712790e-03
 -2.4609976e-02   5.3617037e-03
  1.1277123e-02   2.6121843e-03
  1.2541298e+00   1.7819140e-04
 -1.2297452e-03   4.6370621e-03
  4.6483297e-03   3.0111459e-03
  2.7017342e-04   1.5937890e-03
  2.9604041e-03   8.1339391e-04
 -1.2459334e-02   3.9712079e-03
  1.4558426e-02   1.1379834e-03
 -3.9106351e-03   4.0756166e-04
  1.1088540e-02   1.8849915e-03
 -7.7592423e-03   2.8752678e-03
  4.0212175e-04   2.4503347e-04
 -1.3147535e-02   7.7480002e-04
 -2.5734188e-02   3.4717992e-03
  6.8472303e-02   1.2100009e-03
  7.4925120e-03   2.7786209e-03
 -3.6516089e-03   3.3198816e-03
 -2.1947580e-03   2.1588770e-03
  1.4966741e-02   4.0455515e-04
  6.5766759e-03   2.6754213e-03
  5.8168650e-01   5.0446705e-04
  1.2028744e-02   4.7019925e-03
  6.6494336e-03   3.3043125e-03
 -2.4014777e-03   1.8144534e-03
  5.6345242e-01   3.3475811e-04
  9.6836500e-03   5.9531792e-04
  3.9317831e-01   1.7753430e-04
  2.5420970e-01   3.6041341e-03
 -1.3753545e-01   1.1966377e-03
 -1.5532001e+00   2.6273125e-04
 -1.0199402e-02   1.4199070e-03
  4.1508570e-04   4.1557783e-03
 -1.1729756e-04   1.9741608e-03
 -2.1040484e-02   2.2114480e-03
 -1.1061386e-02   1.7271872e-03
  9.2419134e-03   1.5985728e-03
 -1.2434047e-02   1.0727532e-03
 -6.8428695e-02   1.2726781e-03
 -1.4674244e-02   3.2797568e-03
 -1.9197425e-02   1.3622938e-03
 -1.2589114e-02   3.3229759e-03
 -2.9933933e-04   5.0001004e-04
 -9.2196179e-04   5.1245689e-03
 -6.8869777e-03   1.6871486e-03
 -6.6457931e-03   1.2587185e-03
  2.3071330e-02   2.0933650e-03
  1.9010933e-02   1.5219070e-03
 -6.3592177e-03   2.8420251e-03
  6.0272170e-03   1.8739885e-03
  2.7939582e-02   1.5298036e-03
 -1.9064797e-02   2.1588909e-03
  6.5069245e-03   1.9095900e-03
  6.7607248e-03   1.2996814e-03
  1.1356044e-02   7.2816340e-03
 -1.5128561e+00   3.1658221e-04
  8.5026097e-01   9.1629499e-04
 -5.2576967e-02   2.8598276e-03
 -2.4535159e-02   7.6782511e-04
  1.9738104e-03   2.1138799e-03
  2.5867507e-02   1.8148175e-04
 -1.0549670e-01   1.1828695e-04
 -1.3233291e+00   3.6959380e-05
  1.4690552e+00   2.3929606e-04
  6.4979851e-01   1.6754787e-04
 -1.0442327e-02   2.7358424e-04
 -4.6361819e-01   2.3554849e-05
  3.0279923e-03   3.6158320e-03
  6.8131185e-01   3.3666767e-04
  1.0549873e+00   4.1587613e-05
  7.1372062e-02   1.3509969e-04
  4.7772020e-01   2.7959846e-04
  2.9687314e+00   1.1412041e-03
 -9.7470397e-01   2.9140196e-05
  1.4305715e-01   2.0061932e-04
  1.1556988e-03   3.8023847e-03
 -7.4657679e-01   1.1026700e-04
 -5.0697380e-01   3.5309545e-03
  4.8544999e-02   1.8387624e-04
  1.0578787e-02   6.9898559e-04
  1.0364696e-01   2.4773157e-04
 -2.2299333e-02   1.3402072e-04
 -6.5439387e-04   2.1270833e-03
 -7.0370704e-02   6.6738919e-04
  1.4719812e-02   1.2228400e-03
  6.3642246e-01   3.1509695e-05
 -7.8036882e-02   1.5706877e-05
 -4.3630293e-01   1.4388786e-05
  1.4744780e+00   3.4185417e-05
  8.1859016e-01   2.0273475e-05
 -5.4732084e-01   6.3811399e-06
  1.5144577e+00   1.8886178e-05