108
Lattice="19.92 0.0 0.0 -9.96 17.251226043 0.0 0.0 0.0 53.325" Properties=species:S:1:pos:R:3:force:R:3 energy=-775.60908847 config_type=nep2xyz virial="40.4087921930847 2.641139391576362 -0.1463995505464119 2.641139391576362 39.0837618859908 -0.5220058974170498 -0.1463995505464119 -0.5220058974170498 94.89916240505465" pbc="T T T"
Se      -0.06239000      15.37640000      25.07912000       0.39849300      -0.38762900      -0.76054600
Se       3.27662000      15.35369000      25.03737000       0.21376000      -0.51591200      -0.61621100
Se       3.35914000      15.32442000      28.33045000      -0.41346800       0.09082900       0.05450500
Se       4.95769000      12.37996000      25.01433000       0.28418600       0.79375800      -1.12804900
Se       5.01093000      12.42135000      28.31499000      -0.19930700       0.25175300       0.71142900
Se       6.67391000       9.58828000      25.01950000      -0.21932700      -0.52951900      -0.65331900
Se       6.61446000       9.59603000      28.29201000       0.50948600      -0.06739100       1.10919300
Se       8.29403000       6.67947000      25.05475000       0.10084000       0.25065400      -1.24596600
Se       8.25319000       6.72705000      28.29878000       0.56063100      -0.40632000       1.24898800
Se      14.91264000       0.95529000      28.27483000       0.07186900       0.28636700       0.57849900
Se       9.98222000       3.82517000      25.08968000      -0.31346200       0.15743800      -1.27924700
Se      11.50906000       0.95020000      25.04238000       0.83444400       0.01340700      -1.28353400
Se      11.63715000       1.00260000      28.28459000      -0.07441600      -0.51717200       1.48474000
Se      10.03462000      15.27344000      28.27697000      -0.62468500       0.53392000       0.80064800
Se      -0.02320000      15.36668000      28.32005000       0.32587300      -0.15555500       1.23708000
Se       1.64131000      12.43675000      25.08413000      -0.06450600       0.40399000      -1.40888800
Se       1.64971000      12.40618000      28.30784000       0.19858400       0.48216900       0.90718100
Se       3.28709000       9.58928000      25.00100000       0.49281800      -0.00599000      -0.26776300
Se       3.32169000       9.59781000      28.33621000       0.07793700       0.14402000       0.46258900
Se       9.91651000       3.84519000      28.33424000       0.66040300       0.04079200       0.29938400
Se       4.92664000       6.65433000      25.07347000       0.79635900       1.09537000      -1.64782600
Se      14.91557000       0.97644000      24.94362000       0.05805200      -0.27767500      -0.02152300
Se      13.24286000       3.90254000      24.96874000       0.20134900      -0.61444300      -0.40608500
Se      11.64396000      12.48761000      25.00004000      -0.24528100      -0.51382000      -0.99607900
Se      11.63679000      12.45156000      28.29888000       0.14928200      -0.29680300       0.70801700
Se      13.28417000       9.58095000      24.98244000       0.26089200      -0.20006600      -0.25714900
Se      13.29314000       9.56399000      28.26534000       0.16735100       0.52286700       1.06797400
Se      14.96785000       6.68633000      25.01908000      -0.37738300       0.35584400      -0.83677200
Se      14.92145000       6.71870000      28.28502000       0.32977500      -0.39540000       1.04375800
Se      16.66153000       3.85630000      24.96959000      -0.60541400      -0.26521600      -0.55299200
Se      16.59650000       3.82748000      28.24481000      -0.26831300       0.04622800       1.01184600
Se      13.26752000       3.81428000      28.25457000       0.38488700       0.22939500       1.11196700
Se      18.25427000       0.93849000      25.02094000      -0.03221500       0.03366800      -0.79053800
Se       6.64476000      15.33881000      25.02985000      -0.20473700      -0.16930500      -0.88847800
Se       6.62452000      15.33634000      28.28763000       0.25428300      -0.16487700       0.82969800
Se       8.30317000      12.42106000      24.96170000       0.04487600       0.44381000       0.08814900
Se       8.29226000      12.46618000      28.25638000       0.01036600       0.06219000       0.91750100
Se       9.99523000       9.58573000      25.05278000      -0.42613000      -0.02653700      -0.94176700
Se       9.90873000       9.57074000      28.31168000       0.60088000       0.32561500       0.76396800
Se      11.57805000       6.71916000      25.02494000       0.61164600       0.26206100      -0.75962500
Se      11.58166000       6.72768000      28.31403000       0.65220400       0.05689300       0.78537300
Se      18.21216000       0.96079000      28.30715000       0.61871600      -0.23588100       0.40388300
Se       5.00926000       6.71349000      28.29147000      -0.25771500       0.29003800       1.41302500
Se      10.01240000      15.32528000      24.98004000      -0.27366200      -0.21984200      -0.52013400
Se       6.65304000       3.87966000      24.99364000      -0.05477600      -0.28691000      -0.38412100
Se      -4.98472000      12.48502000      24.99631000       0.29256100      -0.13249100      -0.64605300
Se      -6.61641000      15.38002000      25.06536000       0.07037300      -0.70870900      -1.65139200
Se      -4.92357000      12.44804000      28.31680000      -0.87081000      -0.07514800       0.65253700
Se       4.95546000       1.00240000      28.26604000       0.20054600      -0.44390200       1.10491300
Se       5.01233000       0.95835000      24.99348000      -0.00152100      -0.10008900      -0.31629500
Se      -3.33722000       9.56867000      25.05662000       0.20243900       0.48471100      -1.34292800
Se       3.37242000       3.84647000      28.26700000      -0.49446200      -0.29077700       1.12603200
Se       3.24549000       3.80911000      25.04243000       1.04551300       0.45216300      -1.22685300
Se      -3.29936000       9.60936000      28.30208000      -0.01679200      -0.12953000       0.84130900
Se       1.70472000       6.72265000      28.34042000      -0.39373000      -0.14230400       0.28336200
Se       1.66238000       6.68233000      24.99129000       0.01893600       0.31376400       0.16806700
Se      -1.63843000       6.66969000      25.00559000      -0.15459100       0.63253400      -0.89737700
Se      -0.01790000       9.56696000      28.30374000       0.16924600      -0.23086900       0.79043200
Se      -6.65748000      15.24788000      28.29233000       0.21313100       0.93138600       1.01017300
Se       0.02977000       9.61061000      25.01828000      -0.12853400      -0.46922800      -0.61543200
Se      -1.74252000       6.77259000      28.28251000       0.56685500      -0.51974200       1.07186700
Se      -1.58648000      12.41973000      28.35285000      -0.83021500       0.08355600       0.72949900
Se      -1.63585000      12.44779000      25.02708000      -0.22844600       0.18707100      -0.40144100
Se      -0.02286000       3.84745000      25.05459000       0.20623000       0.17045800      -1.10650900
Se       6.64033000       3.87311000      28.35461000      -0.20633900      -0.22078700       0.09309300
Se      -3.40827000      15.31381000      28.33525000       0.91818100       0.17208400       0.86382800
Se      -0.03018000       3.82222000      28.28774000       0.23574400       0.21450400       0.79580700
Se       1.69100000       0.94317000      28.26188000      -0.49175200       0.06282500       0.90161500
Se      -3.27024000      15.34695000      25.09107000      -0.20274600      -0.41496500      -0.91836000
Se       1.65767000       0.95835000      24.99380000      -0.00336500       0.00045200      -0.59513900
Se       8.27092000       0.92599000      25.06131000       0.27432200       0.65051200      -1.02117300
Se       8.27365000       1.00406000      28.32027000       0.12161100      -0.09849600       1.25620100
W       13.28070000       5.75632000      26.65823000      -0.54676900       0.27563200      -0.15591100
W        8.31405000      14.39791000      26.64768000       0.18799300      -0.55130000      -0.48773400
W        4.99007000      14.32578000      26.66239000      -0.26386700       0.38412100      -0.35567200
W        6.62585000      17.24498000      26.66453000      -0.42150100       0.29589900      -0.63387100
W        9.97786000      11.51349000      26.66367000      -0.14210300      -0.16521400      -0.36911100
W       -3.31291000       5.75377000      26.63013000      -0.14770700      -0.14710100       0.31809800
W       18.24835000       2.87102000      26.64320000       0.04700500      -0.37571600       0.14333200
W       -4.93825000       8.61445000      26.67967000      -0.95696100       0.09483400      -0.69986100
W       14.92824000       2.88197000      26.60294000       0.15323900       0.10841600      -0.25385900
W       11.63261000       8.65151000      26.67130000      -0.22687200      -0.61335200      -0.15130400
W       -6.63230000      11.50715000      26.61157000       0.32742900      -0.08392200       0.93913500
W        6.62506000      11.48167000      26.64213000       0.46366700       0.25295800      -0.08108500
W       11.63775000       2.84654000      26.65903000      -0.47374600       0.95421100      -0.07664200
W        8.30744000       8.58549000      26.68543000      -0.40086900       1.03318300      -0.77226200
W        1.69001000       8.63317000      26.68458000      -0.48378600      -0.31015100      -0.41838300
W        4.99765000       2.87888000      26.64069000       0.21920100       0.49788300      -0.30589100
W       -0.01177000      11.47286000      26.68602000       0.18732000       0.07277500      -0.22044200
W       -1.64300000      14.34008000      26.73636000      -0.63647600       0.28289800      -0.38733900
W        6.66971000       0.00293000      26.69796000      -1.07191400       0.01767100       0.10633400
W        9.93835000       0.04037000      26.71183000      -0.25798500      -0.37265100       0.05980000
W       -4.98277000      14.35875000      26.67887000       0.11948500      -0.07008400      -0.43407500
W        8.27733000       2.89639000      26.68426000      -0.20836900      -0.06302400      -0.22201300
W        6.62982000       5.77173000      26.67242000       0.15239300      -0.75616200      -0.11446000
W       -8.26589000      14.33632000      26.64608000      -0.37143300       0.36729900      -0.28230400
W       -3.32928000      11.52391000      26.67658000       0.79083000      -0.19081800      -0.44644900
W       -1.66525000       8.62855000      26.63936000       0.30320600       0.07714400      -0.11686100
W        3.33537000      11.52115000      26.65450000      -0.26205900      -1.02482400       0.77276900
W        1.62721000      14.36761000      26.68660000       0.36330600       0.35963000       0.33923400
W       -0.02930000       5.78706000      26.67903000       0.69781800      -0.22197900       0.37815400
W       13.25054000       0.02044000      26.64101000       0.24096100      -0.23979400      -0.02445700
W        1.65858000       2.88268000      26.64085000      -0.42779700      -0.42221800       0.93568800
W        3.35796000       5.76213000      26.67775000      -1.44654500      -0.45817800       0.06796400
W        9.98413000       5.78287000      26.67066000      -0.96514800      -0.62777600       0.57011900
W       -6.63638000      17.24400000      26.64112000       0.24212100       0.29795000       0.43327200
W        4.98628000       8.64857000      26.69300000      -0.50549100      -0.36750300      -1.17657800
W        9.96560000      17.21534000      26.62635000      -0.00640800       0.38946700       0.78010700
108
Lattice="19.92 0.0 0.0 -9.96 17.251226043 0.0 0.0 0.0 53.325" Properties=species:S:1:pos:R:3:force:R:3 energy=-773.94729385 config_type=nep2xyz virial="55.52031392499375 2.4491043561330605 0.42684618956188214 2.4491043561330605 54.756977518472844 0.6209399686847423 0.42684618956188214 0.6209399686847423 131.3954266097865" pbc="T T T"
Se      -0.01677000      15.25522000      25.05646000       0.18621800       0.32841800      -0.58159200
Se       3.25937000      15.33096000      25.02110000       0.40610900       0.07020000      -0.92127600
Se       3.33212000      15.28790000      28.27755000       0.10926800       0.49326700       1.46255400
Se       4.99396000      12.47516000      25.00863000      -0.44462200      -0.18929900      -0.99718900
Se       4.94524000      12.44714000      28.20914000       0.30433200      -0.03768400       1.36495800
Se       6.65299000       9.58556000      25.05352000       0.00561200      -0.35066600      -1.97668600
Se       6.63578000       9.64359000      28.30326000      -0.25784300      -0.43684100       0.98683500
Se       8.31656000       6.66142000      25.02350000       0.09659100       0.68350600      -0.47693600
Se       8.27128000       6.66901000      28.29883000       0.51893700       0.73236700       1.35251800
Se      14.94908000       0.92867000      28.25228000       0.38916300       0.53725800       1.14782600
Se       9.88443000       3.78400000      25.07192000       0.57165800       0.24342900      -1.25331100
Se      11.69054000       0.97115000      25.06286000      -0.78110200       0.01416500      -0.93366000
Se      11.64744000       0.94141000      28.31126000      -0.16865000       0.26862500       0.50133000
Se       9.94406000      15.30615000      28.24071000      -0.61214000       0.53844300       1.55435300
Se       0.06281000      15.26782000      28.33712000      -0.55532900       0.41409000       0.47184600
Se       1.57495000      12.47567000      25.05966000       0.41854600      -0.46878200      -1.13169600
Se       1.67904000      12.42099000      28.32816000       0.11382500       0.06804200       1.06793500
Se       3.30783000       9.62748000      25.03513000       0.47520400      -0.89674500      -2.06105200
Se       3.33622000       9.58043000      28.22567000      -0.01715900      -0.30716200       1.63909300
Se      10.02390000       3.82484000      28.33040000      -0.71400600      -0.15618400       1.59666800
Se       4.98130000       6.65689000      25.05907000       0.07941100       0.38293700      -1.15439600
Se      15.00554000       0.91831000      25.04606000      -0.77724500       0.47651300      -1.50600500
Se      13.23603000       3.76389000      24.98740000       0.30641400       0.76018200      -0.92006700
Se      11.59262000      12.39759000      24.99193000       0.15624000       0.68525000      -0.75776800
Se      11.59645000      12.52670000      28.22732000       0.19937900      -0.56984600       1.64080200
Se      13.26184000       9.61542000      25.05934000      -0.08698800      -0.27061400      -1.31212200
Se      13.29844000       9.59080000      28.28049000      -0.77038500       0.62353300       1.63143500
Se      14.99359000       6.73793000      25.04691000      -0.28034800       0.26311800      -1.05343000
Se      14.92937000       6.76467000      28.27073000       0.28658100      -0.65370300       0.99795800
Se      16.59582000       3.87040000      24.98548000       0.03177600      -0.42755200      -0.76955400
Se      16.54523000       3.80583000      28.26881000       0.43166900       0.13529600       1.05929000
Se      13.28288000       3.86666000      28.27260000       0.34372300      -0.13432400       1.03934700
Se      18.31297000       1.06559000      25.02254000      -0.05966600      -0.61143600      -1.44238400
Se       6.67561000      15.38820000      25.01097000      -0.39529300      -0.47791000      -0.92736600
Se       6.58282000      15.36232000      28.22748000       0.71092300      -0.09700000       1.22617700
Se       8.28625000      12.41893000      25.02825000       0.49146400       0.17802200      -1.28839600
Se       8.26800000      12.34705000      28.24487000       0.34972200       1.06178500       1.32160200
Se       9.92727000       9.58212000      25.06606000       0.27501400      -0.51743900      -1.32369300
Se       9.97846000       9.62403000      28.34992000      -0.06600200      -0.60116100       0.51132700
Se      11.60683000       6.70600000      25.02889000      -0.15847300      -0.28375400      -0.47862900
Se      11.71164000       6.69901000      28.26076000      -0.75381900      -0.26600000       1.02279300
Se      18.28386000       1.01988000      28.24252000      -0.09112200      -0.24685700       1.68818100
Se       5.01777000       6.79781000      28.32699000      -0.21945200      -0.80201400       0.49542100
Se       9.90284000      15.37010000      25.00740000       0.05535000       0.01364100      -0.94903800
Se       6.68423000       3.84642000      25.04462000       0.17674200      -0.16198800      -0.88382200
Se      -4.98876000      12.41181000      25.01161000       0.38496500       0.60247100      -0.86956200
Se      -6.68402000      15.27724000      25.03907000       0.62377500       0.20043400      -0.83104600
Se      -5.04484000      12.44065000      28.24007000       0.81424900      -0.16136500       2.27640700
Se       4.94265000       0.88995000      28.28219000       0.08282800       0.79964500       0.82260200
Se       5.00404000       0.89383000      25.00831000      -0.20187300       0.52058800      -0.57024400
Se      -3.38233000       9.57810000      25.05272000       0.66877800      -0.35513000      -1.50052900
Se       3.37186000       3.78733000      28.29712000       0.00065500       0.36315900       1.02853200
Se       3.30824000       3.88320000      25.02468000       0.46672000      -0.49471800      -0.83920000
Se      -3.28624000       9.52582000      28.29846000      -0.13686200       0.33185000       1.39410800
Se       1.66150000       6.77482000      28.27899000       0.17173100      -0.36328400       1.22410700
Se       1.65710000       6.66299000      25.07843000       0.19863000       0.35023500      -1.63665400
Se      -1.66623000       6.66304000      25.04025000       0.32010500       0.73256100      -0.96009700
Se       0.05207000       9.61197000      28.27878000      -0.20474900      -0.29338900       1.21860800
Se      -6.70430000      15.31729000      28.25942000       0.30163000      -0.11997600       1.04391100
Se       0.03486000       9.63081000      25.06152000      -0.47365100       0.51847400      -1.39713000
Se      -1.68088000       6.74004000      28.25318000       0.14482000      -0.01009400       1.38544100
Se      -1.80257000      12.43888000      28.34176000       0.64590000       0.18090300       0.94410100
Se      -1.70942000      12.50747000      25.11997000       0.03317000      -0.55604500      -1.45447900
Se       0.01485000       3.84866000      25.04819000       0.33188500       0.33345900      -1.00132500
Se       6.60932000       3.84664000      28.28075000       0.33633200      -0.02720400       1.36367700
Se      -3.33733000      15.33950000      28.36714000      -0.13030100       0.20458600       0.67228500
Se      -0.03543000       3.86512000      28.27947000       0.65729100      -0.14022300       1.37341900
Se       1.63985000       0.95080000      28.25740000       0.41061600       0.14300200       1.54578100
Se      -3.23573000      15.39413000      25.09187000      -1.15533600      -0.55973300      -1.54628300
Se       1.64434000       1.04898000      25.00553000       0.33856800      -0.71469500      -0.67833300
Se       8.30631000       0.93090000      25.06152000       0.25762300       0.27934200      -0.85111900
Se       8.31009000       0.97335000      28.35680000       0.22190700      -0.68764500       0.59040600
W       13.32671000       5.73395000      26.61515000      -0.42140400      -0.02871100      -0.24651400
W        8.27975000      14.34481000      26.63541000      -0.12017800       0.13628900       0.27849700
W        4.95249000      14.38842000      26.63952000       0.29696900       0.09095000      -0.98746300
W       16.65903000       0.05125000      26.61493000      -0.05693400      -0.46381100       0.71394200
W        9.98574000      11.46234000      26.65637000      -0.62723800       0.49951700      -0.04115300
W       16.61346000       5.72002000      26.65210000      -0.47715200       0.62374600       0.39969500
W       -1.63817000       2.91399000      26.64368000      -0.95346100       0.42786900       0.06248800
W       -5.01162000       8.68936000      26.70457000       0.84007700      -1.14703500      -1.17284000
W       14.92744000       2.88604000      26.62064000      -0.06801000      -0.41060500       0.10202500
W       11.61745000       8.62428000      26.67658000      -0.23755500       0.27096400      -0.06923200
W       -6.62861000      11.53341000      26.64725000      -1.19817300      -0.62545200      -0.28164300
W        6.64509000      11.47455000      26.61605000      -0.71346300       0.32659400       0.39779100
W       11.61284000       2.93064000      26.68079000       0.23096900      -1.35025600      -0.25284500
W        8.27235000       8.66179000      26.69060000       0.78234800      -1.18342400       0.24523100
W        1.67687000       8.64083000      26.60923000      -0.02225700      -0.23273100       0.83279800
W        5.02730000       2.88749000      26.63312000      -0.99757600      -0.97656400      -0.04763300
W       -0.03400000      11.55684000      26.74467000      -0.17241700      -0.41137100      -0.70480300
W       -1.71726000      14.38987000      26.71017000       1.15108400      -0.22855500       1.18697400
W        6.64791000       0.01217000      26.68767000       0.17953300      -0.22504000       0.74889100
W        0.01935000      17.21195000      26.66015000      -0.02344700       0.19324000       0.78538200
W       -4.94983000      14.33927000      26.70372000      -0.45147500       0.87316500      -1.37756200
W        8.31941000       2.84683000      26.73316000      -0.33838500       0.21511600      -0.43721100
W        6.67540000       5.77024000      26.67364000      -0.93435000      -0.40601200      -0.09499900
W       11.54005000      14.39259000      26.62992000       0.75298100      -0.56220600      -1.01700700
W       -3.35462000      11.42443000      26.66799000      -0.31436000       1.15460800       0.25132200
W       -1.62725000       8.67369000      26.65018000      -0.50826200      -0.86349800      -0.35477300
W        3.28900000      11.44828000      26.63434000       0.02685500       1.73892700      -0.11353900
W        1.69818000      14.32397000      26.69338000      -0.83910600       0.36644300      -0.24342200
W        0.01013000       5.77373000      26.69108000      -0.28334700      -0.26608200      -0.32656100
W        3.33848000      17.24390000      26.67311000       0.02731900      -0.57050500      -0.22262500
W        1.70089000       2.89238000      26.67855000      -0.64606800       0.27099900      -0.10421100
W        3.32913000       5.73355000      26.68740000       0.28041800       0.46818400       0.74493700
W        9.92279000       5.68155000      26.70809000       0.99854300       1.19691700      -0.76065600
W       -6.66248000      17.23115000      26.64528000      -0.10670600       0.22141300      -0.70895600
W        5.00962000       8.62568000      26.63370000      -0.33512300       0.28545100       0.24374600
W        0.00417000       0.04172000      26.65957000      -0.11028000      -0.49286700      -0.85564000
108
Lattice="19.92 0.0 0.0 -9.96 17.251226043 0.0 0.0 0.0 53.325" Properties=species:S:1:pos:R:3:force:R:3 energy=-773.04720305 config_type=nep2xyz virial="56.25494229464968 -1.5052847537041616 -0.6506773773894823 -1.5052847537041616 58.509952871659884 6.071120736370382 -0.6506773773894823 6.071120736370382 135.3736056465875" pbc="T T T"
Se      -0.06069000      15.36189000      25.05326000       0.37401200       0.81826600      -1.00729800
Se       3.23966000      15.28357000      25.03230000       0.59668100       0.90698800      -1.63924000
Se       3.36215000      15.38394000      28.24353000      -0.24653900      -1.01371500       1.04706800
Se       4.94664000      12.47141000      24.92410000      -0.05001400      -0.00809700      -1.08508400
Se       5.07494000      12.51718000      28.22375000      -0.79992700      -0.36289300       1.12335000
Se       6.70629000       9.65613000      25.01241000       0.05526300      -1.60796400      -1.48026800
Se       6.56449000       9.66864000      28.23473000       0.79616600      -0.44722300       0.89090300
Se       8.29902000       6.76860000      25.10461000      -0.07557200      -0.89404000      -1.51154800
Se       8.25997000       6.75237000      28.31968000       0.21603300      -0.76965300       0.88582500
Se      14.98130000       0.94685000      28.25143000      -0.10258900      -0.16413100       1.85761900
Se      10.02581000       3.75554000      25.13725000      -1.34190400       1.08896500      -1.44858500
Se      11.58229000       1.00638000      25.10530000       0.22920000      -0.77001400      -1.58928600
Se      11.71194000       0.89134000      28.35386000      -0.54086900       0.23253800       1.28025300
Se       9.99364000      15.36650000      28.20285000      -0.14789100      -0.70413900       1.01008900
Se      -0.02371000      15.31641000      28.26609000       0.32544100       0.29982400       1.43750900
Se       1.61490000      12.49380000      25.04345000       0.06546100      -0.61375000      -1.04798800
Se       1.69842000      12.55420000      28.29750000      -0.13877300      -0.85412100       0.71800000
Se       3.38663000       9.57880000      24.98468000      -0.29359600       0.55556000      -1.19788900
Se       3.38359000       9.60686000      28.19623000      -0.31126100       0.14148600       1.51825000
Se       9.95949000       3.79898000      28.33173000      -0.44287900       0.93347100       1.35275700
Se       5.02872000       6.66066000      25.03230000      -0.78029300      -0.08766100      -1.10563200
Se      14.93484000       0.92364000      25.02366000       0.14727500       0.41438900      -0.97954300
Se      13.19884000       3.77762000      25.09373000       0.33616100      -0.00526500      -1.01959100
Se      11.60490000      12.41779000      25.02484000      -0.13576500       0.61640400      -1.55058100
Se      11.64412000      12.47705000      28.26630000      -0.31521800       0.19023700       0.72552000
Se      13.31568000       9.62794000      25.01454000       0.32175600      -0.75586200      -0.93457400
Se      13.33091000       9.63379000      28.26988000       0.21113000      -0.15966500       1.05793300
Se      14.93047000       6.68238000      25.08152000      -0.04284100      -0.12506700      -1.26701000
Se      14.94509000       6.63981000      28.34890000      -0.34853900       0.41613100       0.42757200
Se      16.58713000       3.82280000      25.05049000      -0.20551400      -0.05756000      -0.80493800
Se      16.71238000       3.85330000      28.29632000      -1.40148800      -0.53464300       1.43924700
Se      13.24399000       3.79306000      28.29030000       0.34454900       0.17822400       1.40193200
Se      18.19526000       0.93458000      25.01966000       0.75128500       0.39635600      -1.22815500
Se       6.67265000      15.32494000      24.95429000      -0.43661800       0.30199800      -0.44063100
Se       6.65752000      15.31985000      28.24327000      -0.22355600      -0.14519400       0.68946500
Se       8.33053000      12.46137000      24.95813000      -0.29028600       0.03966500      -1.16634700
Se       8.24860000      12.43926000      28.22236000      -0.12883600       0.29261200       1.18328600
Se      10.00258000       9.57928000      25.08648000      -0.21931300       0.05708300      -1.29054700
Se      10.07088000       9.67820000      28.31771000      -0.76927400      -0.57913400       0.72489700
Se      11.60537000       6.78280000      25.02292000       0.25621500      -0.53151000      -0.83970400
Se      11.68283000       6.74766000      28.26508000      -0.62814100      -0.00538800       1.71400500
Se      18.27337000       0.88872000      28.35781000      -0.00166900       0.38386100       0.11580400
Se       4.92118000       6.72084000      28.25132000       0.26020000       0.00063300       1.15872500
Se       9.88747000      15.30263000      24.96341000       1.22572200       0.48135700      -0.55974600
Se       6.72362000       3.85334000      25.12167000      -1.31030100      -0.79107300      -2.25296000
Se      -4.92889000      12.45200000      25.01785000      -0.42285700       0.40085000      -1.16167400
Se      -6.63758000      15.36442000      25.04926000       0.24358700       0.75562100      -1.70023800
Se      -5.01678000      12.41303000      28.24748000      -0.12747600       0.93692900       1.25989700
Se       5.02311000       1.00066000      28.30699000      -0.22467000      -0.59653600       1.61941300
Se       4.97542000       1.04327000      25.08563000       0.37785600      -0.74640900      -1.48315600
Se      -3.25822000       9.68492000      25.06627000      -0.43627900      -0.93507300      -1.20147400
Se       3.17443000       3.78350000      28.32907000       0.82714600       0.47141400       0.81646500
Se       3.26969000       3.76808000      25.07102000       0.11710800       0.56881900      -0.95604500
Se      -3.29688000       9.54217000      28.30678000       0.20650400       0.38938700       0.55465300
Se       1.60334000       6.68392000      28.22839000       0.23799900       0.69636400       1.46453800
Se       1.63194000       6.73200000      25.00660000       0.17610300      -0.48625900      -0.85959400
Se      -1.65549000       6.60229000      25.01897000      -0.20204000       0.67606400      -0.79995000